/*--------------------------------*- C++ -*----------------------------------*\
| =========                 |                                                 |
| \\      /  F ield         | OpenFOAM: The Open Source CFD Toolbox           |
|  \\    /   O peration     | Version:  2412                                  |
|   \\  /    A nd           | Website:  www.openfoam.com                      |
|    \\/     M anipulation  |                                                 |
\*---------------------------------------------------------------------------*/
FoamFile
{
    version     2.0;
    format      ascii;
    arch        "LSB;label=32;scalar=64";
    class       volScalarField;
    location    "15174";
    object      p;
}
// * * * * * * * * * * * * * * * * * * * * * * * * * * * * * * * * * * * * * //

dimensions      [0 2 -2 0 0 0 0];

internalField   nonuniform List<scalar> 
57274
(
0.0087687022
0.008768359
0.0087636586
0.0087585999
0.0087669227
0.0087657136
0.008765523
0.0087608845
0.0087628251
0.0087572269
0.008766397
0.00876443
0.0087627542
0.0087585942
0.0087591358
0.0087558155
0.0087545119
0.0087500214
0.0087463997
0.0087677007
0.0087652155
0.0087630516
0.0087609779
0.0087581787
0.0087567354
0.0087531543
0.008751626
0.0087513557
0.0087466158
0.0087480907
0.0087439969
0.0087662285
0.0087638782
0.008761656
0.0087594689
0.008757034
0.0087550102
0.0087521898
0.0087499474
0.008747996
0.0087436535
0.0087435683
0.0087399666
0.0087373478
0.0087308663
0.0087270304
0.0087647934
0.0087625135
0.0087602792
0.0087580539
0.0087557236
0.0087535164
0.0087510093
0.0087486255
0.0087462219
0.008742942
0.0087407798
0.008736663
0.0087341232
0.0087318796
0.0087257298
0.0087251028
0.0087203664
0.0087165168
0.0087633615
0.008761138
0.0087589204
0.0087567066
0.0087544364
0.0087521791
0.0087497739
0.0087473633
0.0087448739
0.00874199
0.0087393021
0.0087356757
0.0087324328
0.0087291669
0.0087235654
0.0087213846
0.008719549
0.0087126732
0.0087108416
0.0087031235
0.0086985336
0.0086973184
0.0086961362
0.0084957043
0.00848446
0.0084805833
0.0084758772
0.0084704717
0.0084649282
0.008459316
0.0084536493
0.0084479377
0.0084421376
0.0087619234
0.0087597555
0.0087575667
0.0087553964
0.0087531829
0.0087509468
0.0087486142
0.0087462257
0.0087437322
0.0087410024
0.0087382341
0.0087350247
0.0087317582
0.0087282925
0.0087238457
0.0087203895
0.0087168863
0.0087110356
0.0087075985
0.0087032583
0.0086989847
0.0086959497
0.0086901337
0.0086877845
0.0086818896
0.008677442
0.0086718152
0.0086686796
0.0086656171
0.0086634235
0.0086620986
0.0086598206
0.0085760335
0.0085755236
0.0085741511
0.0085709571
0.0085666959
0.0085620186
0.0085569976
0.0085517387
0.0085463408
0.0085403639
0.0085344221
0.0085287323
0.0085229597
0.0085171592
0.0085112811
0.0085047067
0.008497903
0.008498087
0.0084868805
0.0084819062
0.0084766033
0.0084710124
0.0084653914
0.0084597251
0.0084540157
0.008448271
0.0084424847
0.0087604334
0.0087583747
0.0087562143
0.0087541153
0.008751965
0.00874979
0.0087475389
0.0087452175
0.0087427853
0.0087401722
0.0087374298
0.0087344049
0.0087312264
0.0087278482
0.00872401
0.008720357
0.008716494
0.0087116171
0.0087074566
0.0087031156
0.0086987271
0.0086943502
0.0086893888
0.0086852203
0.0086812158
0.0086768772
0.0086718947
0.0086683454
0.0086648475
0.0086620119
0.0086588814
0.0086536242
0.0086517081
0.0086454127
0.0086397178
0.0086353144
0.0086309152
0.0086265246
0.0086221324
0.0086176804
0.0086130979
0.0086084177
0.0086034853
0.0085974897
0.0085895184
0.0085845962
0.0085791012
0.0085751187
0.0085710714
0.008566535
0.0085617457
0.0085567063
0.0085514742
0.0085461216
0.0085404575
0.0085347749
0.0085291309
0.008523411
0.0085176584
0.0085118594
0.0085058116
0.0085002502
0.0084958144
0.0084888509
0.0084829226
0.0084771558
0.0084713888
0.0084656405
0.0084598808
0.0084541
0.0084482992
0.0084424905
0.0087588496
0.0087569748
0.0087548284
0.0087528656
0.0087507883
0.0087486998
0.0087465434
0.0087443294
0.0087420021
0.008739513
0.0087368653
0.0087339856
0.0087309117
0.0087276239
0.0087240346
0.0087203868
0.008716544
0.0087122321
0.0087080427
0.008703703
0.0086993179
0.0086948759
0.0086900968
0.0086855204
0.0086811224
0.0086766807
0.0086721756
0.0086682222
0.0086643429
0.0086606626
0.0086564459
0.0086523807
0.0086483956
0.0086441204
0.0086391424
0.0086347271
0.0086303165
0.0086259004
0.0086214668
0.008616965
0.0086123409
0.0086075962
0.0086026332
0.0085971664
0.0085914601
0.0085856822
0.0085813071
0.0085763158
0.0085717589
0.0085670057
0.0085620873
0.0085570111
0.0085517942
0.0085464577
0.0085409249
0.0085353811
0.008529746
0.0085240397
0.0085183006
0.0085125155
0.0085066262
0.0085008672
0.00849535
0.0084893886
0.008483552
0.0084776834
0.008471825
0.0084659779
0.0084601323
0.0084542773
0.0084484137
0.0084425887
0.0087575327
0.0087556826
0.0087533942
0.0087516306
0.0087496268
0.0087476688
0.008745619
0.0087435452
0.0087413639
0.0087390198
0.0087365086
0.0087337765
0.0087308264
0.0087276492
0.0087242149
0.0087206168
0.0087168093
0.0087127066
0.0087085375
0.008704227
0.0086998281
0.0086953581
0.0086907134
0.0086861145
0.008681552
0.0086770204
0.0086725342
0.0086683253
0.0086642396
0.0086602823
0.0086561848
0.0086520487
0.0086477664
0.0086434524
0.0086388993
0.0086345246
0.0086301554
0.008625768
0.0086213574
0.0086168677
0.0086122667
0.0086075362
0.0086026259
0.0085974969
0.008592199
0.008586879
0.0085823586
0.0085774898
0.0085728089
0.0085679399
0.0085629325
0.0085578191
0.0085526023
0.0085472683
0.0085417097
0.0085362581
0.008530639
0.0085249328
0.0085192139
0.0085134557
0.0085076616
0.0085018785
0.0084960216
0.0084901671
0.0084842649
0.0084782225
0.0084722675
0.0084663349
0.0084604187
0.0084544938
0.0084485434
0.0084426946
0.0087541013
0.0087554356
0.008752158
0.0087504933
0.0087484719
0.00874669
0.0087447657
0.0087428796
0.0087408815
0.0087386992
0.0087363526
0.0087337799
0.0087309619
0.0087279016
0.0087245892
0.0087210625
0.0087173098
0.0087133099
0.0087091599
0.0087048499
0.0087004126
0.0086958685
0.0086911988
0.0086865041
0.008681814
0.0086771627
0.0086725878
0.0086682011
0.0086639566
0.0086598314
0.0086557237
0.0086515894
0.0086474093
0.0086431879
0.0086388792
0.008634619
0.0086303493
0.0086260426
0.0086217277
0.0086173181
0.0086127991
0.0086081595
0.0086033568
0.0085984976
0.0085934549
0.0085884003
0.0085836021
0.0085786373
0.00857389
0.0085689286
0.008563832
0.0085586864
0.0085534828
0.0085481629
0.0085425041
0.0085371904
0.0085316046
0.0085258217
0.0085200986
0.0085143527
0.0085086014
0.0085025815
0.0084958796
0.0084906433
0.0084848551
0.0084785994
0.0084725746
0.0084665765
0.0084606077
0.0084545713
0.0084484027
0.0084425559
0.0087457906
0.0087563042
0.008748228
0.0087503744
0.0087478824
0.0087459796
0.008743969
0.0087423233
0.0087405582
0.0087385597
0.0087364102
0.0087340143
0.0087313311
0.0087283877
0.0087251796
0.008721723
0.0087180227
0.008714079
0.0087099378
0.0087056086
0.0087011171
0.0086964843
0.0086917211
0.0086868897
0.0086820373
0.0086772216
0.0086725018
0.0086679532
0.0086635831
0.0086593503
0.0086552148
0.0086511074
0.0086469818
0.008642899
0.0086387676
0.008634631
0.0086304642
0.0086262317
0.0086220752
0.0086177798
0.0086133611
0.0086088264
0.0086040744
0.0085995197
0.0085946889
0.0085897526
0.0085848593
0.0085797344
0.0085750698
0.0085700662
0.0085648199
0.0085596222
0.0085544245
0.0085489594
0.0085425638
0.008538028
0.0085326808
0.0085267731
0.0085210904
0.0085154597
0.0085100442
0.0085043853
0.0084953666
0.0084933712
0.0084856411
0.008478808
0.0084726884
0.0084666478
0.0084606637
0.0084544975
0.0084480076
0.0084421782
0.0087528054
0.0087396038
0.008751482
0.0087449083
0.0087450499
0.0087427697
0.0087417626
0.0087403725
0.0087386006
0.0087367065
0.0087345204
0.008731965
0.0087291316
0.008726015
0.0087226236
0.008718962
0.0087150438
0.0087108942
0.0087065254
0.0087019575
0.0086972102
0.008692305
0.008687292
0.0086822281
0.0086771944
0.0086722774
0.0086675559
0.0086630852
0.0086587806
0.008654662
0.008650606
0.0086465313
0.0086426438
0.008638689
0.0086346939
0.0086306468
0.0086264407
0.0086225342
0.0086183806
0.0086140538
0.0086095882
0.0086047644
0.0086006169
0.0085959481
0.0085910181
0.0085858948
0.008579987
0.0085761888
0.0085713682
0.0085659312
0.0085607833
0.0085559968
0.0085513181
0.0085419922
0.008541159
0.0085341924
0.0085277703
0.0085220518
0.0085165741
0.0085114843
0.0085066247
0.0084983689
0.0087468556
0.0087335785
0.0087445724
0.0087424293
0.0087418208
0.0087406876
0.008738891
0.0087372815
0.0087353625
0.0087329094
0.008730172
0.0087271274
0.0087237835
0.0087201512
0.0087162401
0.0087120648
0.0087076376
0.0087029717
0.0086980807
0.008692986
0.0086877322
0.0086823845
0.0086770546
0.0086718722
0.0086669414
0.0086624039
0.0086580469
0.0086540263
0.0086500745
0.0086459854
0.0086424121
0.0086386655
0.0086348156
0.008630851
0.008626551
0.0086230376
0.0086190341
0.008614699
0.0086101208
0.0086045936
0.0086019496
0.008597763
0.0085931669
0.0085886674
0.0085792081
0.0085794302
0.0085731522
0.0085671879
0.0085620841
0.0085578076
0.008554222
0.0085455739
0.0087348953
0.0087451173
0.0087394829
0.0087410906
0.0087390793
0.0087380974
0.008736627
0.0087342105
0.0087315594
0.0087285712
0.0087252463
0.0087216214
0.0087176984
0.0087134862
0.0087089863
0.0087042048
0.008699143
0.0086938114
0.0086882469
0.0086825136
0.0086767752
0.0086712324
0.008666027
0.0086615015
0.0086570758
0.0086532761
0.0086494558
0.0086451427
0.0086420925
0.0086385814
0.0086348104
0.0086307589
0.0086257783
0.0086238123
0.0086203447
0.0086164023
0.0086130955
0.0086031407
0.0086058862
0.008600817
0.00859624
0.0085920588
0.0085826436
0.0087406028
0.0087288653
0.008742305
0.0087403846
0.0087400266
0.0087390337
0.0087360567
0.0087333967
0.0087304195
0.0087270601
0.0087234096
0.0087194525
0.0087151924
0.008710616
0.0087057122
0.0087004617
0.0086948492
0.008688892
0.008682635
0.0086763268
0.0086702819
0.0086646453
0.0086602425
0.0086556047
0.0086521763
0.0086484894
0.0086432015
0.0086420456
0.008639145
0.0086359333
0.0086333868
0.0086238476
0.0086273231
0.0086232094
0.0086194025
0.0086169956
0.0086073159
0.0087315337
0.008744707
0.0087390017
0.008742533
0.0087382986
0.0087356094
0.0087327189
0.0087292748
0.0087255538
0.0087215357
0.0087172202
0.0087125748
0.0087075587
0.0087021196
0.0086961927
0.008689753
0.0086827552
0.0086755549
0.0086686782
0.0086621901
0.0086582991
0.0086532492
0.0086518914
0.0086507436
0.0086407161
0.0086456114
0.0086416684
0.008638485
0.0086369811
0.0086282031
0.0087388326
0.0087293353
0.0087460424
0.0087407018
0.0087379167
0.0087355155
0.0087320088
0.0087281368
0.008723991
0.0087196057
0.0087149106
0.0087098192
0.0087042271
0.0086979781
0.0086909676
0.0086828609
0.0086743005
0.0086663501
0.0086587308
0.0086590553
0.0086508924
0.0086543426
0.0086536868
0.0086443152
0.0087316216
0.0087460609
0.0087407073
0.0087385601
0.0087351745
0.0087311553
0.0087268183
0.0087223617
0.0087176632
0.0087125808
0.0087069455
0.0087004727
0.0086929649
0.0086835011
0.0086741784
0.0086670535
0.008655314
0.008661548
0.0086562212
0.0087384488
0.0087483288
0.0087432029
0.0087390183
0.008734674
0.0087300012
0.008725474
0.008720849
0.008715928
0.0087104869
0.0087040886
0.008696481
0.0086854433
0.0086696339
0.0086565684
0.0086532961
0.0087333451
0.0087507914
0.0087435798
0.008738712
0.008733404
0.0087288244
0.0087243849
0.008719829
0.0087149197
0.0087088098
0.0087006954
0.0086896324
0.0086997123
0.0087427747
0.0087454895
0.0087429211
0.0087368383
0.0087322583
0.0087281853
0.0087243705
0.0087207071
0.0087156837
0.0087084344
0.008720448
0.0087424196
0.0087525787
0.0087436615
0.0087390756
0.0087352317
0.008731758
0.0087291305
0.0087272665
0.0087251783
0.0087253973
0.008742734
0.0087381494
0.0087475421
0.0087404638
0.0087376778
0.0087345742
0.0087330519
0.0087324151
0.0087315043
0.0087337106
0.0087479261
0.0087280518
0.0087393452
0.0087396437
0.0087365784
0.0087362485
0.0087372422
0.008738812
0.0087446758
0.0087539643
0.0087281176
0.0087432369
0.0087363232
0.0087363932
0.0087377592
0.0087405962
0.0087444867
0.008753005
0.0087594147
0.009982626
0.0099825776
0.0099826041
0.0099824353
0.0099851759
0.0099886181
0.010004925
0.0099769605
0.0099815113
0.0099834053
0.0099825968
0.0099824376
0.0099823673
0.0099820678
0.0099818574
0.0099847607
0.0099889673
0.0099774803
0.0099817701
0.0099834688
0.0099825552
0.0099823029
0.0099821934
0.0099820513
0.0099816347
0.0099838256
0.0099835956
0.0099781402
0.009982078
0.0099835137
0.009982458
0.0099820993
0.009981965
0.0099820054
0.0099820936
0.0099848504
0.009988051
0.010003462
0.0099789796
0.0099824327
0.009983504
0.0099822335
0.0099816924
0.0099814329
0.0099814641
0.0099816517
0.0099822368
0.0099863308
0.0099907451
0.0099800519
0.0099828351
0.009983409
0.0099818373
0.0099810485
0.0099806354
0.0099806254
0.0099809678
0.0099814245
0.0099850299
0.00998574
0.0099814332
0.0099832873
0.0099831789
0.0099811902
0.0099800693
0.0099794666
0.0099794079
0.0099799204
0.0099808325
0.0099847263
0.0099887221
0.010003608
0.009983218
0.0099837908
0.0099827411
0.0099801734
0.0099786097
0.0099777482
0.0099775658
0.0099780835
0.009979037
0.0099807824
0.0099859842
0.0099900897
0.0099854328
0.0099842318
0.0099819574
0.0099786165
0.0099765094
0.0099753817
0.0099751183
0.0099757307
0.0099770786
0.0099792238
0.0099844043
0.0099879497
0.010003712
0.0099888551
0.0099846091
0.0099806475
0.0099762502
0.0099735017
0.0099721354
0.0099718205
0.009972486
0.0099739306
0.0099759246
0.0099785544
0.0099835792
0.0099917179
0.0099973655
0.0099859378
0.0099787042
0.0099726322
0.0099691962
0.0099677777
0.009967601
0.0099685162
0.0099702763
0.0099727132
0.009975924
0.0099811039
0.0099851743
0.0099958193
0.0099939606
0.0099829409
0.0099742144
0.0099669023
0.009962855
0.0099619207
0.0099622189
0.0099636271
0.0099657492
0.0099683566
0.00997143
0.0099753964
0.0099797639
0.0099812998
0.0099961973
0.0099814705
0.009969855
0.0099587849
0.0099547067
0.0099546852
0.0099557298
0.0099579849
0.0099606589
0.0099635058
0.0099665058
0.0099695854
0.009972023
0.0099770273
0.0099890671
0.0099405238
0.0099413622
0.0099445693
0.0099476861
0.0099515646
0.0099552211
0.0099585203
0.0099617294
0.0099648978
0.0099679888
0.0099729592
0.0099752693
0.0099887704
0.0099154032
0.0099305048
0.0099380941
0.0099447178
0.0099497381
0.009953502
0.0099567919
0.0099597033
0.0099622698
0.0099653327
0.0099670375
0.009964831
0.0099788318
0.0099280633
0.0099316299
0.009939908
0.0099455445
0.0099491302
0.0099522695
0.0099548298
0.0099568587
0.0099584904
0.0099582659
0.0099604272
0.0099763744
0.0098994307
0.0099189856
0.0099328324
0.0099418734
0.0099453224
0.0099482902
0.0099505301
0.0099521815
0.0099533327
0.009953397
0.0099537587
0.0099506855
0.0099661167
0.0099325217
0.0099346264
0.009941011
0.0099429937
0.0099451796
0.0099468707
0.0099479902
0.0099485233
0.0099481255
0.0099470714
0.0099453405
0.0099395689
0.0099412237
0.0096838178
0.0099329882
0.0099337267
0.0099393929
0.0099407525
0.0099424443
0.0099437328
0.0099444423
0.0099445986
0.0099440116
0.0099427496
0.0099412052
0.0099393609
0.0099299571
0.0099416838
0.0096835221
0.0096999958
0.0096965189
0.0099297557
0.009932218
0.0099375714
0.0099386929
0.0099400931
0.0099410912
0.0099414676
0.009941291
0.0099404488
0.0099389466
0.0099368465
0.0099345934
0.0099306412
0.009924137
0.0099393154
0.0096831397
0.0097020184
0.0096990015
0.0096980958
0.0099262338
0.0099295062
0.0099354433
0.009936927
0.0099381876
0.0099389817
0.0099390875
0.0099386003
0.0099375075
0.0099357951
0.0099334422
0.0099305071
0.0099266863
0.0099225727
0.0099154681
0.0099203804
0.0097092796
0.0097057595
0.0097095862
0.0097037338
0.0097019206
0.0097002467
0.0096981965
0.0099194014
0.0099275701
0.0099342215
0.0099362824
0.0099370012
0.0099375177
0.0099373303
0.0099365323
0.0099351874
0.0099332916
0.0099308423
0.0099278619
0.0099241952
0.0099204685
0.0099165535
0.0099081639
0.0099251259
0.0097003
0.0097133823
0.0097080158
0.0097102637
0.0097059927
0.0097039779
0.0097019491
0.0096998328
0.009697946
0.0098727467
0.0099052673
0.0099267325
0.0099353215
0.0099361098
0.0099365528
0.0099361237
0.0099350246
0.0099334082
0.009931304
0.0099287084
0.0099256449
0.009922009
0.0099179397
0.0099136282
0.0099078694
0.0098997823
0.0098989536
0.0098918188
0.0097038451
0.0097180811
0.009716471
0.0097150258
0.009711796
0.0097083633
0.0097059215
0.0097036162
0.0097013976
0.0096993624
0.0099283843
0.0099363368
0.0099396584
0.0099376955
0.0099368702
0.009935702
0.0099341122
0.0099321536
0.0099298072
0.0099270529
0.0099238971
0.0099202906
0.0099162474
0.009911887
0.0099069978
0.0098999206
0.0099005423
0.0098889442
0.0099000915
0.0097250029
0.0097173243
0.0097236963
0.0097201699
0.0097211779
0.0097168093
0.0097132609
0.0097102279
0.0097075872
0.0097051372
0.009702827
0.0097006728
0.0096986198
0.0096966579
0.0099349628
0.0099409121
0.0099423524
0.0099390595
0.0099373682
0.0099355922
0.0099335666
0.0099312916
0.009928714
0.0099258051
0.0099225555
0.0099189376
0.0099149365
0.0099105768
0.0099058388
0.0099000413
0.0098951035
0.0098905531
0.009885428
0.0098946703
0.0098842883
0.0097265405
0.0097248899
0.0097354837
0.0097255871
0.0097269533
0.0097232776
0.0097212353
0.0097176497
0.0097145729
0.0097117098
0.0097090175
0.0097064966
0.0097041145
0.0097018687
0.0096997314
0.0096976924
0.009935189
0.009942903
0.0099439696
0.009940079
0.009937863
0.0099356488
0.0099332754
0.0099307312
0.0099279511
0.0099249023
0.009921569
0.0099179355
0.0099139885
0.0099097354
0.0099051857
0.0099002072
0.0098953904
0.0098902497
0.0098848417
0.0098879938
0.0098762497
0.0098871444
0.0098846004
0.0097468454
0.0097377448
0.0097427159
0.0097338317
0.0097372819
0.0097326202
0.0097286923
0.0097250583
0.0097221763
0.0097189308
0.0097158976
0.0097130302
0.0097102977
0.0097077181
0.0097052709
0.0097029508
0.0097007415
0.0096986345
0.0096966224
0.0096946988
0.0099358365
0.009944078
0.0099451677
0.0099409488
0.0099383596
0.009935819
0.0099331715
0.0099304061
0.0099274548
0.0099242849
0.0099208786
0.0099172249
0.0099133164
0.0099091608
0.0099047667
0.0099001349
0.0098955397
0.0098907659
0.0098857893
0.0098820288
0.0098757238
0.009879065
0.00987
0.0098725281
0.0098610902
0.0097591138
0.009751236
0.0097489177
0.0097557118
0.0097445096
0.0097451612
0.0097412907
0.0097383794
0.0097336252
0.0097298469
0.0097264138
0.0097232932
0.0097201143
0.009717082
0.0097141952
0.0097114311
0.0097088031
0.0097063002
0.0097039191
0.0097016479
0.009699481
0.0096974111
0.0096954327
0.0096935412
0.0096917322
0.0099388745
0.0099453064
0.0099461887
0.0099417388
0.0099388484
0.0099360625
0.0099332066
0.009930265
0.0099271739
0.0099239027
0.009920433
0.0099167571
0.0099128719
0.0099087857
0.0099045094
0.0099000663
0.0098955721
0.0098910253
0.0098864379
0.009882241
0.0098765629
0.0098732723
0.009868736
0.0098676459
0.0098558002
0.0098623145
0.0098568685
0.009852106
0.0098494575
0.0098432322
0.0097868071
0.0097787406
0.0097776248
0.0097757563
0.0097712858
0.0097661444
0.0097685987
0.0097567671
0.0097563892
0.0097568099
0.0097507755
0.0097468063
0.0097422612
0.0097386307
0.0097346073
0.0097310104
0.0097275817
0.0097243461
0.0097211777
0.0097181381
0.0097152251
0.0097124297
0.0097097594
0.0097072087
0.0097047749
0.0097024501
0.0097002297
0.0096981078
0.0096960796
0.0096941407
0.0096922873
0.0099468479
0.0099465486
0.0099468859
0.0099424104
0.009939301
0.0099363474
0.0099333458
0.0099302708
0.0099270694
0.0099237149
0.0099201911
0.0099164933
0.0099126194
0.0099085796
0.0099043865
0.0099000652
0.0098956703
0.0098912283
0.0098867602
0.0098824923
0.0098777016
0.0098736258
0.0098686954
0.0098639174
0.0098570967
0.009856629
0.0098542973
0.0098505947
0.0098474674
0.0098385523
0.0098421918
0.0098370796
0.0098327752
0.0098270518
0.0098236071
0.0098200876
0.0098164993
0.0098129491
0.0098096148
0.0098041718
0.0098003298
0.0097954685
0.009789728
0.0097926558
0.0097826728
0.0097803721
0.0097778992
0.0097739854
0.0097714288
0.009769173
0.0097631642
0.0097592555
0.0097561244
0.0097510777
0.0097470797
0.009743039
0.009739376
0.0097356073
0.0097320264
0.0097285917
0.0097253106
0.0097221325
0.0097190733
0.0097161311
0.009713304
0.0097105949
0.0097080013
0.0097055206
0.0097031481
0.0097008795
0.0096987105
0.0096966368
0.0096946546
0.0096927603
0.0096909506
0.0096892222
0.0099127744
0.0099504368
0.0099459854
0.0099462807
0.0099426575
0.009939639
0.0099366401
0.0099335628
0.0099303984
0.0099271133
0.0099236914
0.0099201212
0.0099164003
0.009912529
0.0099085167
0.0099043766
0.0099001302
0.0098958106
0.0098914416
0.0098870389
0.0098826973
0.0098782024
0.0098739966
0.0098695114
0.0098650121
0.0098598556
0.0098567278
0.0098533309
0.009849383
0.0098447811
0.0098398066
0.0098383743
0.0098358016
0.0098319629
0.0098274397
0.00982403
0.009820496
0.0098169064
0.009813325
0.0098098812
0.0098053803
0.0098016188
0.0097974084
0.0097942996
0.0097923887
0.0097870876
0.009782663
0.0097791864
0.00977531
0.009771867
0.0097682262
0.0097633419
0.0097593754
0.0097558295
0.0097515753
0.0097477078
0.0097438457
0.0097401394
0.009736453
0.0097328983
0.0097294692
0.0097261671
0.0097229722
0.0097198896
0.0097169188
0.0097140604
0.0097113148
0.0097086815
0.0097061583
0.0097037421
0.0097014298
0.0096992177
0.0096971024
0.0096950805
0.0096931487
0.0096913039
0.0096895429
0.0099294394
0.0099454161
0.0099509056
0.0099466855
0.0099431363
0.0099401239
0.0099370412
0.0099338882
0.0099306477
0.0099272927
0.0099238126
0.0099202002
0.009916454
0.009912577
0.0099085773
0.0099044672
0.009900265
0.0098959943
0.0098916748
0.0098873234
0.0098829805
0.0098785827
0.0098742911
0.0098699434
0.009865598
0.0098611256
0.0098574603
0.0098537563
0.0098498845
0.0098458479
0.0098417915
0.0098386882
0.0098354
0.0098315858
0.0098276774
0.0098241252
0.0098205294
0.009816912
0.0098132872
0.009809691
0.009805756
0.0098019762
0.0097979847
0.0097943769
0.009790988
0.0097867019
0.0097826518
0.0097790505
0.0097752889
0.0097716483
0.0097679371
0.0097637159
0.0097598506
0.0097561301
0.009752148
0.0097483129
0.0097445179
0.0097408237
0.0097371882
0.0097336564
0.0097302296
0.0097269124
0.0097236993
0.0097205926
0.0097175935
0.0097147037
0.009711923
0.009709252
0.0097066891
0.0097042325
0.0097018797
0.009699628
0.0096974746
0.0096954163
0.0096934502
0.0096915732
0.0096897825
0.0096880752
0.0099444024
0.0099477266
0.009950417
0.0099466058
0.0099435618
0.0099406024
0.0099374995
0.0099343042
0.0099310064
0.0099275943
0.009924063
0.0099204104
0.0099166365
0.0099127455
0.0099087454
0.0099046479
0.009900468
0.0098962249
0.009891935
0.0098876152
0.0098832887
0.0098789429
0.00987464
0.009870335
0.009866042
0.0098617738
0.0098578536
0.0098539812
0.0098500693
0.0098461456
0.0098422222
0.0098387268
0.0098351848
0.009831424
0.0098276268
0.0098239618
0.0098203051
0.0098166482
0.0098129858
0.0098093133
0.0098055098
0.0098017533
0.0097979407
0.0097942696
0.0097906923
0.0097867638
0.0097829232
0.0097792549
0.0097755199
0.009771817
0.0097680672
0.0097641099
0.0097602751
0.0097564974
0.0097526374
0.0097488504
0.009745109
0.0097414394
0.0097378333
0.0097343125
0.0097308836
0.0097275521
0.009724319
0.0097211873
0.0097181596
0.0097152374
0.0097124223
0.0097097146
0.0097071139
0.0097046192
0.0097022287
0.0096999403
0.0096977515
0.0096956598
0.0096936624
0.0096917564
0.0096899388
0.009688207
0.0099168909
0.0099538153
0.0099511291
0.0099507095
0.0099472396
0.0099442391
0.0099412178
0.0099380747
0.0099348313
0.0099314783
0.0099280134
0.0099244336
0.00992074
0.0099169342
0.0099130213
0.0099090094
0.0099049095
0.0099007349
0.0098965014
0.0098922245
0.0098879191
0.0098836023
0.0098792794
0.0098749803
0.0098706976
0.0098664403
0.0098622317
0.0098581891
0.0098542111
0.009850253
0.0098463264
0.0098424385
0.0098387417
0.0098350568
0.0098312949
0.0098275302
0.0098238291
0.0098201468
0.0098164739
0.0098128038
0.0098091289
0.0098054024
0.0098016906
0.0097979631
0.0097942933
0.0097906545
0.0097868829
0.0097831355
0.0097794517
0.0097757368
0.0097720218
0.0097682739
0.0097644403
0.0097606491
0.0097568826
0.0097530947
0.0097493478
0.0097456405
0.0097419887
0.0097383966
0.0097348777
0.0097314413
0.0097280929
0.0097248373
0.0097216786
0.0097186201
0.0097156647
0.0097128145
0.0097100705
0.0097074331
0.0097049019
0.0097024757
0.0097001529
0.0096979316
0.0096958092
0.0096937832
0.0096918509
0.0096900095
0.0096882559
0.0096865874
0.0099376894
0.0099508736
0.009954868
0.0099512323
0.0099479615
0.0099450069
0.0099419405
0.0099387583
0.0099354663
0.0099320614
0.009928545
0.0099249173
0.0099211804
0.0099173376
0.0099133947
0.0099093602
0.0099052446
0.0099010605
0.0098968216
0.0098925425
0.0098882366
0.0098839186
0.0098795987
0.0098752954
0.0098710138
0.0098667647
0.0098625637
0.0098584591
0.0098544156
0.0098504148
0.0098464591
0.0098425516
0.0098387409
0.0098349601
0.009831171
0.0098274022
0.0098236775
0.0098199787
0.0098162988
0.0098126313
0.009808969
0.009805292
0.0098016222
0.0097979491
0.0097943
0.0097906615
0.0097869742
0.0097832926
0.0097796294
0.0097759457
0.0097722501
0.00976853
0.0097647682
0.009761017
0.009757274
0.0097535281
0.0097498077
0.0097461195
0.0097424767
0.0097388871
0.009735362
0.0097319111
0.0097285412
0.009725259
0.0097220697
0.0097189779
0.0097159873
0.0097131008
0.0097103201
0.0097076464
0.0097050797
0.0097026195
0.0097002644
0.0096980127
0.0096958622
0.0096938105
0.0096918548
0.0096899922
0.0096882198
0.0096865347
0.0096849338
0.0099199143
0.0099517242
0.0099537503
0.0099538729
0.0099513787
0.009948698
0.0099458273
0.0099427597
0.0099395481
0.0099362098
0.0099327545
0.0099291865
0.0099255092
0.0099217254
0.0099178398
0.0099138588
0.0099097912
0.0099056477
0.0099014405
0.0098971825
0.0098928871
0.0098885671
0.0098842358
0.0098799043
0.0098755869
0.0098712919
0.0098670303
0.0098628134
0.0098586633
0.0098545684
0.0098505215
0.0098465231
0.0098425746
0.0098386914
0.0098348475
0.0098310271
0.0098272414
0.0098234983
0.0098197899
0.00981611
0.0098124526
0.0098088104
0.009805173
0.0098015454
0.0097979223
0.0097943114
0.0097907052
0.0097870786
0.009783449
0.0097798187
0.0097761702
0.0097725046
0.0097688167
0.0097651017
0.009761382
0.0097576611
0.0097539399
0.0097502346
0.0097465543
0.0097429107
0.0097393132
0.0097357731
0.0097323
0.0097289025
0.0097255882
0.0097223638
0.009719235
0.0097162063
0.0097132816
0.0097104633
0.0097077531
0.0097051515
0.0097026583
0.0097002726
0.0096979927
0.0096958166
0.0096937418
0.0096917654
0.0096898847
0.0096880965
0.0096863977
0.0096847851
0.0096832558
0.0096818068
0.0099710405
0.0099589507
0.0099677433
0.009961372
0.0099584005
0.00995595
0.0099529693
0.0099499871
0.0099469332
0.0099437632
0.0099404762
0.0099370744
0.0099335608
0.0099299376
0.0099262069
0.0099223714
0.0099184363
0.0099144085
0.0099102973
0.0099061141
0.009901871
0.0098975808
0.0098932562
0.0098889096
0.0098845528
0.0098801974
0.0098758552
0.0098715358
0.0098672492
0.0098630043
0.0098588124
0.0098546707
0.0098505771
0.0098465318
0.0098425362
0.009838596
0.009834702
0.0098308493
0.009827043
0.009823286
0.0098195738
0.0098159006
0.00981226
0.0098086448
0.0098050466
0.0098014636
0.0097978905
0.0097943267
0.0097907652
0.009787193
0.0097836126
0.009780022
0.0097764118
0.0097727802
0.0097691245
0.0097654439
0.009761749
0.009758045
0.0097543369
0.0097506362
0.0097469528
0.0097432981
0.0097396826
0.0097361177
0.0097326139
0.009729181
0.0097258281
0.0097225629
0.0097193923
0.009716322
0.0097133565
0.0097104989
0.0097077515
0.0097051152
0.0097025901
0.0097001753
0.0096978692
0.0096956699
0.0096935746
0.0096915806
0.0096896848
0.0096878838
0.0096861744
0.0096845532
0.0096830171
0.0096815628
0.0099616715
0.0099780852
0.0099653035
0.0099670056
0.0099654613
0.0099609413
0.009957677
0.0099544779
0.0099513204
0.0099481387
0.0099448757
0.0099415138
0.0099380482
0.0099344757
0.0099307956
0.0099270083
0.0099231161
0.0099191244
0.0099150406
0.0099108751
0.0099066401
0.0099023486
0.0098980136
0.0098936476
0.0098892622
0.0098848685
0.0098804779
0.0098761009
0.0098717473
0.0098674264
0.0098631458
0.0098589119
0.0098547246
0.0098505836
0.0098464899
0.0098424448
0.0098384526
0.0098345124
0.0098306257
0.009826798
0.0098230303
0.0098193194
0.0098156591
0.0098120423
0.0098084607
0.0098049055
0.0098013714
0.009797852
0.0097943418
0.0097908335
0.0097873168
0.0097837881
0.0097802428
0.009776674
0.0097730785
0.0097694542
0.009765801
0.0097621249
0.0097584312
0.0097547262
0.0097510199
0.0097473228
0.0097436462
0.0097400017
0.0097364014
0.0097328572
0.0097293802
0.0097259807
0.0097226679
0.0097194499
0.0097163335
0.0097133239
0.009710425
0.0097076393
0.0097049683
0.0097024119
0.0096999694
0.0096976393
0.0096954192
0.0096933064
0.0096912977
0.0096893899
0.0096875795
0.0096858627
0.0096842362
0.0096826964
0.0096812398
0.0099852123
0.0099852371
0.0099801877
0.0099747885
0.0099699633
0.0099665284
0.0099625714
0.0099592307
0.0099559462
0.0099526931
0.0099494194
0.0099460786
0.0099426507
0.0099391258
0.0099354967
0.0099317597
0.0099279133
0.0099239591
0.0099199034
0.0099157537
0.0099115218
0.0099072225
0.00990287
0.0098984777
0.0098940586
0.0098896232
0.0098851815
0.0098807451
0.0098763236
0.0098719267
0.0098675645
0.0098632427
0.0098589651
0.009854732
0.0098505425
0.0098463985
0.0098423016
0.0098382565
0.0098342684
0.0098303446
0.0098264948
0.0098227193
0.0098190151
0.0098153747
0.0098117895
0.0098082494
0.0098047433
0.0098012645
0.0097978048
0.0097943559
0.0097909086
0.0097874528
0.0097839806
0.0097804859
0.0097769621
0.0097734046
0.0097698108
0.0097661806
0.0097625177
0.0097588274
0.0097551163
0.0097513942
0.0097476721
0.009743962
0.0097402766
0.0097366295
0.0097330338
0.0097295024
0.0097260471
0.0097226788
0.0097194067
0.0097162388
0.0097131812
0.0097102384
0.0097074132
0.0097047071
0.0097021202
0.0096996516
0.0096972995
0.0096950613
0.009692934
0.0096909141
0.0096889979
0.0096871814
0.0096854609
0.0096838324
0.0096822922
0.0096808367
0.0099885661
0.0099853175
0.0099808663
0.0099759491
0.0099716127
0.0099679602
0.0099642336
0.0099607997
0.0099574389
0.0099541106
0.0099507654
0.0099473633
0.0099438814
0.0099403054
0.0099366244
0.0099328315
0.009928924
0.0099249026
0.0099207747
0.0099165478
0.0099122355
0.0099078583
0.0099034316
0.0098989692
0.0098944859
0.00988999
0.0098854892