/*--------------------------------*- C++ -*----------------------------------*\
| =========                 |                                                 |
| \\      /  F ield         | OpenFOAM: The Open Source CFD Toolbox           |
|  \\    /   O peration     | Version:  2412                                  |
|   \\  /    A nd           | Website:  www.openfoam.com                      |
|    \\/     M anipulation  |                                                 |
\*---------------------------------------------------------------------------*/
FoamFile
{
    version     2.0;
    format      ascii;
    arch        "LSB;label=32;scalar=64";
    class       surfaceScalarField;
    location    "15174";
    object      phi;
}
// * * * * * * * * * * * * * * * * * * * * * * * * * * * * * * * * * * * * * //

dimensions      [0 3 -1 0 0 0 0];

oriented        oriented;

internalField   nonuniform List<scalar> 
111187
(
5.9732265e-24
2.0850381e-24
-3.5502832e-24
-4.5079814e-24
4.4852328e-24
1.3638533e-24
3.5246541e-24
7.5667206e-25
3.1237873e-24
4.9746628e-24
1.905665e-24
-4.7952897e-24
4.7731401e-24
1.565376e-24
4.1818601e-24
1.347952e-24
5.6014962e-24
1.7041512e-24
3.7726843e-24
1.5082244e-24
3.1628539e-24
4.8602007e-24
1.8365986e-24
-4.7911342e-24
4.7602878e-24
1.6652889e-24
4.5421781e-24
1.5660617e-24
4.6057962e-24
1.6405332e-24
4.4884906e-24
1.62553e-24
5.9780372e-24
1.6733073e-24
4.5949615e-24
1.0292842e-24
3.6160488e-24
5.0813799e-25
2.81248e-24
4.7008183e-24
1.8795905e-24
-1.9417164e-24
-4.6386923e-24
4.744169e-24
1.7932479e-24
4.7185603e-24
1.6908976e-24
4.663379e-24
1.6212429e-24
4.6998296e-24
1.6040827e-24
4.7549686e-24
1.5703909e-24
4.9526945e-24
1.4755814e-24
4.7989286e-24
1.1830502e-24
4.2812686e-24
1.0257979e-24
5.7278425e-24
1.3659062e-24
3.9248211e-24
1.2188867e-24
2.8466492e-24
4.6206195e-24
1.8324222e-24
-4.5734513e-24
4.658405e-24
1.7554624e-24
4.6729069e-24
1.6763957e-24
4.6844611e-24
1.6096887e-24
4.7303254e-24
1.5582184e-24
4.7996049e-24
1.5011114e-24
4.8771057e-24
1.3980805e-24
4.8094739e-24
1.250682e-24
4.6561561e-24
1.1791158e-24
4.7601537e-24
1.2619086e-24
4.6956974e-24
1.283343e-24
6.2230315e-24
1.3193151e-24
4.7995847e-24
6.4362695e-25
3.7237351e-24
3.6323836e-25
2.6797457e-24
4.5781229e-24
1.8007354e-24
-4.5464361e-24
4.6120585e-24
1.7215269e-24
4.6414128e-24
1.6470414e-24
4.6739713e-24
1.5771301e-24
4.7214121e-24
1.5107777e-24
4.7811287e-24
1.4413948e-24
4.8286128e-24
1.3505964e-24
4.8244552e-24
1.2548397e-24
4.8095592e-24
1.1940118e-24
4.8853161e-24
1.1861517e-24
4.9945397e-24
1.1741194e-24
5.2317868e-24
1.082068e-24
5.061133e-24
8.1428079e-25
4.6711824e-24
7.5318896e-25
6.2914769e-24
1.0594512e-24
5.0131522e-24
5.227776e-25
3.896966e-24
1.7883195e-25
2.4604894e-24
4.5653778e-24
1.7762542e-24
-4.5408966e-24
4.5957044e-24
1.6912002e-24
4.6276455e-24
1.6151004e-24
4.6636559e-24
1.5411196e-24
4.7069587e-24
1.4674749e-24
4.756447e-24
1.3919065e-24
4.7991542e-24
1.3078891e-24
4.828496e-24
1.2254979e-24
4.8653959e-24
1.1571119e-24
4.9434095e-24
1.108138e-24
5.0566413e-24
1.0608875e-24
5.1748297e-24
9.6387956e-25
5.1512079e-24
8.3790262e-25
5.1191254e-24
7.8527145e-25
5.3702242e-24
8.083524e-25
5.2817054e-24
6.1129642e-25
4.9237831e-24
5.3675421e-25
6.567419e-24
8.168535e-25
5.4241279e-24
1.4502746e-25
5.004343e-24
-4.7235682e-25
4.6992214e-24
-3.7787036e-25
3.8413989e-24
2.6557775e-25
2.3045279e-24
4.017596e-24
-3.4440156e-24
5.015578e-24
-1.255601e-24
5.3413537e-24
-4.0605134e-25
5.47065e-24
-1.5090292e-25
5.5415502e-24
-6.8218041e-26
5.5955406e-24
-3.3076727e-26
5.6454648e-24
-1.2193011e-26
5.6973209e-24
1.0263293e-27
5.7585647e-24
5.515608e-28
-4.5679271e-26
4.5613268e-24
1.753937e-24
-4.5390096e-24
4.5915527e-24
1.6609744e-24
4.6249765e-24
1.5816766e-24
4.6609311e-24
1.505165e-24
4.6996458e-24
1.4287602e-24
4.7420604e-24
1.3494919e-24
4.7836196e-24
1.26633e-24
4.8250985e-24
1.184019e-24
4.8755502e-24
1.1066602e-24
4.9472977e-24
1.0363905e-24
5.0401881e-24
9.6799718e-25
5.1250189e-24
8.7904876e-25
5.1705251e-24
7.9239643e-25
5.2262041e-24
7.2959239e-25
5.3506368e-24
6.8391973e-25
5.3718078e-24
5.9012538e-25
5.3780957e-24
5.3046634e-25
5.6814247e-24
5.1352455e-25
5.6339789e-24
1.9247318e-25
5.2692374e-24
-1.0761531e-25
4.939762e-24
-4.8394951e-26
4.833455e-24
3.7188476e-25
6.3988031e-24
7.3917984e-25
5.5941378e-24
2.3757717e-25
5.3508094e-24
-5.3832934e-25
5.117757e-24
-7.079673e-25
5.1710972e-24
-4.7369424e-25
5.1528045e-24
-4.1113431e-25
5.067955e-24
-3.5790089e-25
4.8211545e-24
-1.7569721e-25
3.7741538e-24
7.4974679e-25
2.504209e-24
4.0764903e-24
-3.310891e-24
4.9055407e-24
-1.6129154e-24
5.1779915e-24
-8.0316121e-25
5.2794697e-24
-5.3629462e-25
5.335265e-24
-4.4920007e-25
5.373813e-24
-4.2869401e-25
5.4067682e-24
-4.2000897e-25
5.4339701e-24
-4.1108375e-25
5.4402726e-24
-3.8701797e-25
5.4938436e-24
-2.9547774e-25
5.5748087e-24
-2.1463396e-25
5.6356375e-24
-1.8852318e-25
5.6931775e-24
-1.7814084e-25
5.7588726e-24
-1.8278362e-25
5.8504198e-24
-2.3372792e-25
6.0173915e-24
-4.4369656e-25
6.9274842e-24
-1.1621232e-24
5.1189158e-24
-1.6354472e-24
5.157273e-24
-1.2939582e-24
5.3918527e-24
-6.4063103e-25
5.5743499e-24
-3.3340015e-25
5.7113309e-24
-2.05199e-25
5.829039e-24
-1.5078489e-25
5.9420678e-24
-1.2522176e-25
6.0580998e-24
-1.1500572e-25
6.1837213e-24
-1.250699e-25
-1.8337561e-25
4.5591027e-24
1.7162583e-24
-4.5214241e-24
4.594275e-24
1.6258021e-24
4.6285613e-24
1.5473903e-24
4.6627199e-24
1.4710064e-24
4.6988559e-24
1.3926241e-24
4.737274e-24
1.3110738e-24
4.7762823e-24
1.2273217e-24
4.8195885e-24
1.1407128e-24
4.8701079e-24
1.0561408e-24
4.931955e-24
9.745433e-25
5.0053542e-24
8.9459803e-25
5.0757345e-24
8.086684e-25
5.1401049e-24
7.2802602e-25
5.2131338e-24
6.5656356e-25
5.3053519e-24
5.917016e-25
5.3749448e-24
5.2053249e-25
5.4505357e-24
4.5487547e-25
5.5839834e-24
3.8007681e-25
5.5635239e-24
2.1293271e-25
5.3880545e-24
6.7854106e-26
5.250502e-24
8.9157538e-26
5.3655793e-24
2.5680743e-25
5.7539572e-24
3.5080197e-25
5.8957892e-24
9.5745099e-26
5.6582632e-24
-3.0080326e-25
5.3950119e-24
-4.4471603e-25
5.3054102e-24
-3.8409256e-25
5.2147031e-24
-3.2042717e-25
5.0740255e-24
-2.1722331e-25
4.8556676e-24
4.2660627e-26
4.9391388e-24
6.6627561e-25
6.5064008e-24
9.3694704e-25
5.7592896e-24
5.1310578e-25
5.6524311e-24
-1.4177389e-25
5.6793763e-24
-2.3873999e-25
5.689654e-24
-2.9470817e-25
5.6980648e-24
-3.3259829e-25
5.7078307e-24
-3.6523096e-25
5.7184253e-24
-3.968106e-25
5.730076e-24
-4.2831332e-25
5.7439809e-24
-4.6089511e-25
5.7451557e-24
-5.1456396e-25
5.7222418e-24
-5.9679386e-25
5.7517577e-24
-7.5833476e-25
6.565127e-24
-1.356372e-24
5.0091734e-24
-1.7549373e-24
4.9539545e-24
-1.5576966e-24
5.1003488e-24
-9.4955551e-25
5.2210538e-24
-6.5699957e-25
5.3114604e-24
-5.3960664e-25
5.3819792e-24
-4.9921286e-25
5.4472276e-24
-4.8525731e-25
5.5133938e-24
-4.7724996e-25
5.5847482e-24
-4.5837241e-25
5.6976516e-24
-4.0838115e-25
5.8354607e-24
-3.5244297e-25
5.9613776e-24
-3.1444008e-25
6.0801967e-24
-2.9695996e-25
6.2061942e-24
-3.0878117e-25
6.3519995e-24
-3.7953317e-25
6.4852741e-24
-5.7697115e-25
6.2864119e-24
-9.6326108e-25
5.834719e-24
-1.1837543e-24
5.605736e-24
-1.0649753e-24
5.6330291e-24
-6.679241e-25
5.7221579e-24
-4.2252891e-25
5.8180919e-24
-3.0113307e-25
5.9133879e-24
-2.4608086e-25
6.0102416e-24
-2.2207549e-25
6.1107317e-24
-2.1549578e-25
6.2121818e-24
-2.2652003e-25
-2.6747909e-25
4.5557695e-24
1.6439466e-24
-4.4834578e-24
4.5999889e-24
1.5815826e-24
4.6389248e-24
1.5084544e-24
4.6722047e-24
1.4377265e-24
4.7042403e-24
1.3605885e-24
4.736341e-24
1.2789731e-24
4.7729022e-24
1.1907606e-24
4.8133821e-24
1.1002329e-24
4.8602828e-24
1.0092401e-24
4.9146412e-24
9.2018484e-25
4.9755679e-24
8.3367134e-25
5.0371457e-24
7.4709059e-25
5.1004017e-24
6.6477005e-25
5.1694227e-24
5.875426e-25
5.246226e-24
5.1489825e-25
5.3217635e-24
4.44995e-25
5.3996884e-24
3.7695062e-25
5.4781471e-24
3.0161806e-25
5.4890528e-24
2.02027e-25
5.4380463e-24
1.1886065e-25
5.4202452e-24
1.0695859e-25
5.5292777e-24
1.4777494e-25
5.7313387e-24
1.48741e-25
5.8086897e-24
1.8394071e-26
5.6795598e-24
-1.7167334e-25
5.5017061e-24
-2.6686233e-25
5.3832561e-24
-2.6564252e-25
5.2912295e-24
-2.284006e-25
5.2178396e-24
-1.4383342e-25
5.2170804e-24
4.3419839e-26
5.555618e-24
3.27738e-25
6.0545826e-24
4.379825e-25
6.3202903e-24
2.4739806e-25
6.2838048e-24
-1.0528836e-25
6.2811741e-24
-2.3610929e-25
6.2866103e-24
-3.0014446e-25
6.295558e-24
-3.415459e-25
6.3061335e-24
-3.7580652e-25
6.3174974e-24
-4.081745e-25
6.3296308e-24
-4.4044674e-25
6.3447935e-24
-4.760578e-25
6.3550729e-24
-5.2484328e-25
6.361494e-24
-6.03215e-25
6.3612612e-24
-7.5810197e-25
6.0809532e-24
-1.0760639e-24
5.6025258e-24
-1.27651e-24
5.2804224e-24
-1.2355932e-24
5.2450011e-24
-9.1413416e-25
5.2944779e-24
-7.0647636e-25
5.354372e-24
-5.9950073e-25
5.4108231e-24
-5.55664e-25
5.4730595e-24
-5.4749368e-25
5.5553894e-24
-5.5957988e-25
5.6704841e-24
-5.7346713e-25
5.8199211e-24
-5.5781821e-25
5.9714192e-24
-5.0394103e-25
6.0876226e-24
-4.3064352e-25
6.1778317e-24
-3.8716899e-25
6.2600691e-24
-3.9101859e-25
6.3458331e-24
-4.6529716e-25
6.4151117e-24
-6.4624979e-25
6.3799166e-24
-9.2806593e-25
6.2855435e-24
-1.0893812e-24
6.1266767e-24
-9.0610841e-25
6.0536382e-24
-5.9488567e-25
6.0273377e-24
-3.9622838e-25
6.0192857e-24
-2.9308112e-25
6.0198467e-24
-2.4664181e-25
6.0284997e-24
-2.3072848e-25
6.0486308e-24
-2.3562691e-25
6.0755748e-24
-2.5346403e-25
-2.7445991e-25
4.5594992e-24
1.5244385e-24
-4.439991e-24
4.6017637e-24
1.5393182e-24
4.6546454e-24
1.4555727e-24
4.6879346e-24
1.4044373e-24
4.7180742e-24
1.3304489e-24
4.7410682e-24
1.2559791e-24
4.7663528e-24
1.165476e-24
4.8023157e-24
1.0642699e-24
4.8460786e-24
9.654773e-25
4.8970047e-24
8.692587e-25
4.951864e-24
7.7881211e-25
5.0089119e-24
6.900426e-25
5.0680472e-24
6.0563482e-25
5.1303318e-24
5.25258e-25
5.1961839e-24
4.4904606e-25
5.2637903e-24
3.7738867e-25
5.3317165e-24
3.0902438e-25
5.392843e-24
2.4049157e-25
5.4261812e-24
1.6868882e-25
5.4370044e-24
1.0803744e-25
5.4669682e-24
7.6994742e-26
5.5487502e-24
6.5992989e-26
5.6569395e-24
4.0551748e-26
5.7042066e-24
-2.8873086e-26
5.6516633e-24
-1.1913003e-25
5.5591725e-24
-1.7437154e-25
5.4814471e-24
-1.8791711e-25
5.4289057e-24
-1.7585918e-25
5.4185677e-24
-1.3349545e-25
5.5031877e-24
-4.1200111e-26
5.7633234e-24
6.7602222e-26
6.0942081e-24
1.070978e-25
6.3214003e-24
2.0205879e-26
6.3696186e-24
-1.5350668e-25
6.385474e-24
-2.5196464e-25
6.3966436e-24
-3.1131409e-25
6.408537e-24
-3.5343928e-25
6.4205564e-24
-3.8782591e-25
6.4320395e-24
-4.1965765e-25
6.4422607e-24
-4.5066787e-25
6.4547102e-24
-4.8850737e-25
6.4686507e-24
-5.3878374e-25
6.469717e-24
-6.0428128e-25
6.4160446e-24
-7.044296e-25
6.1944851e-24
-8.5450445e-25
5.8771047e-24
-9.5912954e-25
5.6183513e-24
-9.7683977e-25
5.5585846e-24
-8.5436746e-25
5.5707232e-24
-7.1861495e-25
5.5781811e-24
-6.0695867e-25
5.5772839e-24
-5.5476679e-25
5.5921249e-24
-5.6233464e-25
5.661887e-24
-6.2934201e-25
5.8190857e-24
-7.3066587e-25
6.0374769e-24
-7.7620939e-25
6.1987529e-24
-6.6521702e-25
6.2391982e-24
-4.7108884e-25
6.2100859e-24
-3.5805664e-25
6.1582793e-24
-3.3921202e-25
6.1208863e-24
-4.2790414e-25
6.1444205e-24
-6.6978399e-25
6.2534965e-24
-1.0371419e-24
6.3642511e-24
-1.2001359e-24
6.4206073e-24
-9.6246454e-25
6.3387838e-24
-5.1306219e-25
6.2323473e-24
-2.8979185e-25
6.1310744e-24
-1.9180827e-25
6.0364691e-24
-1.5203654e-25
5.9500946e-24
-1.4435394e-25
5.8829285e-24
-1.6846081e-25
5.8401548e-24
-2.1069038e-25
-2.2827874e-25
4.5835034e-24
1.2591622e-24
-4.3182271e-24
4.569464e-24
1.5533576e-24
4.669221e-24
1.3558156e-24
4.6967242e-24
1.3769341e-24
4.7370127e-24
1.2901604e-24
4.7464226e-24
1.2465692e-24
4.7569638e-24
1.1549348e-24
4.785362e-24
1.0358717e-24
4.8256919e-24
9.251474e-25
4.8741079e-24
8.2084268e-25
4.9281113e-24
7.2480876e-25
4.9836523e-24
6.3450158e-25
5.040392e-24
5.4889512e-25
5.0986056e-24
4.6704442e-25
5.158293e-24
3.8935865e-25
5.2189466e-24
3.1673503e-25
5.2790708e-24
2.4890019e-25
5.3348904e-24
1.84672e-25
5.3793906e-24
1.2418865e-25
5.4157625e-24
7.1665501e-26
5.4599302e-24
3.2827027e-26
5.5216421e-24
4.2810814e-27
5.5879604e-24
-2.5766538e-26
5.6257199e-24
-6.6632554e-26
5.618284e-24
-1.1169414e-25
5.5868581e-24
-1.4294568e-25
5.5569062e-24
-1.5796521e-25
5.5417738e-24
-1.6072673e-25
5.5585259e-24
-1.5024751e-25
5.638042e-24
-1.2071629e-25
5.7964371e-24
-9.0792875e-26
5.9907286e-24
-8.7193692e-26
6.1443048e-24
-1.3337031e-25
6.2073014e-24
-2.1650328e-25
6.2331355e-24
-2.7779873e-25
6.2491244e-24
-3.2730302e-25
6.2668347e-24
-3.7114956e-25
6.282474e-24
-4.0346517e-25
6.2964325e-24
-4.3361616e-25
6.3006384e-24
-4.5487375e-25
6.3096483e-24
-4.9751729e-25
6.3374567e-24
-5.6659213e-25
6.3526984e-24
-6.1952299e-25
6.3048214e-24
-6.5655262e-25
6.1507908e-24
-7.0047387e-25
5.9792971e-24
-7.8763581e-25
5.8721304e-24
-8.6967306e-25
5.8986853e-24
-8.8092236e-25
5.9347282e-24
-7.5465788e-25
5.8864851e-24
-5.5871559e-25
5.7956027e-24
-4.638844e-25
5.7187162e-24
-4.8544814e-25
5.7294373e-24
-6.4006312e-25
5.9091872e-24
-9.1041572e-25
6.1839714e-24
-1.0509936e-24
6.3303345e-24
-8.1158019e-25
6.2476824e-24
-3.8843671e-25
6.0835431e-24
-1.9391736e-25
5.8977568e-24
-1.5342566e-25
5.7190708e-24
-2.4921816e-25
5.6205238e-24
-5.7123697e-25
5.8678681e-24
-1.2844863e-24
6.304056e-24
-1.6363237e-24
6.5079273e-24
-1.1663358e-24
6.3721097e-24
-3.7724465e-25
6.2228756e-24
-1.4055772e-25
6.0930263e-24
-6.1959019e-26
5.9732947e-24
-3.2304937e-26
5.855882e-24
-2.6941202e-26
5.7621224e-24
-7.4701241e-26
5.7190904e-24
-1.6765841e-25
-1.8077348e-25
5.6598608e-24
-3.8584067e-24
4.4074095e-24
2.8058089e-24
4.6850007e-24
1.0782244e-24
4.6594726e-24
1.4024621e-24
4.7546687e-24
1.1949643e-24
4.735583e-24
1.265655e-24
4.726316e-24
1.1642018e-24
4.7546381e-24
1.0075497e-24
4.796844e-24
8.8294145e-25
4.8463349e-24
7.7135182e-25
4.9007204e-24
6.7042325e-25
4.9562994e-24
5.7892255e-25
5.0114901e-24
4.9370443e-25
5.0672494e-24
4.1128512e-25
5.1235807e-24
3.3302739e-25
5.1808118e-24
2.595039e-25
5.2376652e-24
1.9204677e-25
5.2919793e-24
1.3035795e-25
5.3417494e-24
7.4418467e-26
5.3878036e-24
2.5611299e-26
5.4352106e-24
-1.4579975e-26
5.4866073e-24
-4.7115566e-26
5.5365468e-24
-7.570607e-26
5.5729793e-24
-1.0306508e-25
5.5895381e-24
-1.2825286e-25
5.5933819e-24
-1.4678955e-25
5.5946789e-24
-1.592622e-25
5.6021058e-24
-1.6815363e-25
5.6253897e-24
-1.7353138e-25
5.6799555e-24
-1.7528206e-25
5.7681249e-24
-1.7896232e-25
5.8742903e-24
-1.9335909e-25
5.9690418e-24
-2.2812184e-25
6.0149221e-24
-2.6238356e-25
6.0305425e-24
-2.9341913e-25
6.0451518e-24
-3.4191227e-25
6.0806686e-24
-4.0666637e-25
6.1241155e-24
-4.4691211e-25
6.1332612e-24
-4.4276186e-25
6.113329e-24
-4.3494151e-25
6.1033891e-24
-4.8757738e-25
6.1305465e-24
-5.9374954e-25
6.1804144e-24
-6.693909e-25
6.1488684e-24
-6.2500666e-25
6.0080423e-24
-5.596477e-25
5.88404e-24
-6.6363358e-25
5.9415107e-24
-9.271437e-25
6.1348466e-24
-1.0742583e-24
6.2261645e-24
-8.4597575e-25
6.1051959e-24
-4.37747e-25
5.9126715e-24
-2.7136001e-25
5.7175744e-24
-2.90351e-25
5.5962381e-24
-5.1872679e-25
5.77951e-24
-1.0936876e-24
6.2219341e-24
-1.4934177e-24
6.4116716e-24
-1.0013177e-24
6.2119818e-24
-1.887469e-25
5.9760088e-24
4.2055618e-26
5.7329305e-24
8.9652615e-26
5.4492388e-24
3.4473524e-26
5.1292203e-24
-2.5121837e-25
5.1754082e-24
-1.3306742e-24
6.9487286e-24
-3.4096442e-24
6.0252521e-24
5.8709689e-24
5.7837353e-24
5.7200608e-24
5.6620713e-24
5.5912839e-24
5.5314838e-24
5.542731e-24
3.8985273e-24
5.658151e-24
4.471111e-24
2.5895021e-24
4.7912225e-24
8.7485283e-25
4.6697887e-24
1.3870888e-24
4.6399595e-24
1.1940309e-24
4.7029573e-24
9.4455188e-25
4.7582074e-24
8.2769131e-25
4.8132766e-24
7.1628265e-25
4.8741761e-24
6.0952373e-25
4.9310162e-24
5.2208244e-25
4.9819188e-24
4.4280187e-25
5.0320456e-24
3.6115832e-25
5.0853141e-24
2.7975884e-25
5.1393708e-24
2.0544728e-25
5.1945883e-24
1.3682926e-25
5.2490959e-24
7.5850276e-26
5.3013085e-24
2.2205928e-26
5.3513602e-24
-2.4440375e-26
5.4003849e-24
-6.3604732e-26
5.4487674e-24
-9.5498018e-26
5.4941248e-24
-1.2106351e-25
5.5323393e-24
-1.4127957e-25
5.5608077e-24
-1.5672131e-25
5.5814828e-24
-1.6746457e-25
5.5984633e-24
-1.7624273e-25
5.6170554e-24
-1.8674576e-25
5.6436468e-24
-2.0012273e-25
5.6847362e-24
-2.163715e-25
5.7429497e-24
-2.371758e-25
5.8150029e-24
-2.6541233e-25
5.8685037e-24
-2.8162261e-25
5.8865881e-24
-2.8046797e-25
5.8711348e-24
-2.7796582e-25
5.8633595e-24
-3.3413696e-25
5.8977367e-24
-4.4104354e-25
5.9623465e-24
-5.11522e-25
5.9740371e-24
-4.5445244e-25
5.9041473e-24
-3.6505167e-25
5.8448359e-24
-4.28266e-25
5.9018674e-24
-6.5078108e-25
6.0535205e-24
-8.2104391e-25
6.0650548e-24
-6.36541e-25
5.8598028e-24
-3.543957e-25
5.6583254e-24
-4.6215622e-25
5.7804581e-24
-1.0492764e-24
6.1880743e-24
-1.4818745e-24
6.3571816e-24
-1.015083e-24
6.1419863e-24
-2.2255172e-25
5.8825956e-24
-1.1969265e-26
5.5985543e-24
-6.3096915e-27
5.270103e-24
-1.9027554e-25
5.1947776e-24
-1.0183622e-24
6.9346012e-24
-3.2332413e-24
5.9974627e-24
5.7871592e-24
5.6516092e-24
5.5266564e-24
5.3389115e-24
5.0080063e-24
3.9697689e-24
3.9454141e-24
5.771294e-24
4.4346246e-24
2.7237581e-24
4.4322295e-24
1.196426e-24
4.6516567e-24
7.251247e-25
4.7120855e-24
7.6726255e-25
4.7753095e-24
6.5305868e-25
4.8584682e-24
5.26365e-25
4.9191127e-24
4.6143795e-25
4.9600254e-24
4.0188915e-25
4.997347e-24
3.2383669e-25
5.0395173e-24
2.3758857e-25
5.0890031e-24
1.5596145e-25
5.1421376e-24
8.3694768e-26
5.1959757e-24
2.2012157e-26
5.2494739e-24
-3.1292245e-26
5.301697e-24
-7.6663453e-26
5.3524489e-24
-1.1435658e-25
5.4015759e-24
-1.446251e-25
5.4479538e-24
-1.6744137e-25
5.4896065e-24
-1.8293228e-25
5.5240736e-24
-1.9118843e-25
5.5517002e-24
-1.9509114e-25
5.5754671e-24
-2.0000964e-25
5.6015939e-24
-2.1287252e-25
5.6339087e-24
-2.3243754e-25
5.6752671e-24
-2.5772992e-25
5.7224731e-24
-2.8438177e-25
5.7782419e-24
-3.2118119e-25
5.8459282e-24
-3.4930889e-25
5.8495204e-24
-2.8406021e-25
5.7777782e-24
-2.0622355e-25
5.7203083e-24
-2.7666711e-25
5.7802022e-24
-5.0093739e-25
5.9384852e-24
-6.6980505e-25
5.9680597e-24
-4.8402693e-25
5.7914371e-24
-1.8842906e-25
5.6074524e-24
-2.4428127e-25
5.6660277e-24
-7.093564e-25
6.023496e-24
-1.1785122e-24
6.0979884e-24
-7.1103339e-25
5.7264766e-24
1.7116018e-26
5.2769793e-24
-1.265885e-26
5.1662244e-24
-9.3852151e-25
6.8733122e-24
-3.1889623e-24
5.9462498e-24
5.7344646e-24
5.5849294e-24
5.4144512e-24
5.0831715e-24
4.0666106e-24
4.7578923e-24
4.1777617e-24
1.7765566e-24
4.6838309e-24
2.1905543e-25
4.6485986e-24
8.024949e-25
4.7200875e-24
5.8156973e-25
4.8696062e-24
3.7684633e-25
4.9332688e-24
3.9777539e-25
4.9543121e-24
3.8084583e-25
4.9691197e-24
3.0902913e-25
4.9932686e-24
2.1343958e-25
5.0303568e-24
1.1887324e-25
5.076711e-24
3.7340581e-26
5.128517e-24
-2.979379e-26
5.1814776e-24
-8.4252832e-26
5.234728e-24
-1.2991387e-25
5.2875455e-24
-1.6717407e-25
5.3395189e-24
-1.9659851e-25
5.389769e-24
-2.1769143e-25
5.4356463e-24
-2.2880957e-25
5.4746111e-24
-2.3015325e-25
5.5037504e-24
-2.2423047e-25
5.52755e-24
-2.2380928e-25
5.5581659e-24
-2.4348836e-25
5.6010581e-24
-2.7532979e-25
5.6571229e-24
-3.1379468e-25
5.6995767e-24
-3.2683554e-25
5.7613397e-24
-3.8294426e-25
5.8897937e-24
-4.7776285e-25
5.8891452e-24
-2.8341168e-25
5.7077297e-24
-2.4808042e-26
5.5277845e-24
-9.6721911e-26
5.5879107e-24
-5.6106362e-25
5.945008e-24
-1.0269024e-24
6.0321984e-24
-5.7121729e-25
5.6933322e-24
1.5043719e-25
5.2966444e-24
1.5240646e-25
5.1272208e-24
-5.399328e-25
6.8595525e-24
-2.9108438e-24
5.8522663e-24
5.4836614e-24
5.0135069e-24
4.0318367e-24
4.100091e-24
5.6872342e-24
4.466775e-24
2.0229541e-24
4.6054445e-24
4.4290016e-25
4.9290341e-24
5.3256797e-26
4.9698551e-24
3.5695434e-25
4.9583749e-24
3.9232609e-25
4.9452031e-24
3.222009e-25
4.9460725e-24
2.1257017e-25
4.9649614e-24
9.9984384e-26
4.9997776e-24
2.5243187e-27
5.044759e-24
-7.47752e-26
5.0954309e-24
-1.3492469e-25
5.148362e-24
-1.8284494e-25
5.2028036e-24
-2.2161575e-25
5.2586365e-24
-2.5243135e-25
5.3150345e-24
-2.7408942e-25
5.3691495e-24
-2.8292457e-25
5.4129553e-24
-2.7395914e-25
5.4386576e-24
-2.4993269e-25
5.4516739e-24
-2.3682558e-25
5.4802053e-24
-2.7201982e-25
5.5327194e-24
-3.2784383e-25
5.6222927e-24
-4.0336801e-25
5.6269709e-24
-3.3151378e-25
5.6358719e-24
-3.9184526e-25
5.940428e-24
-7.8231888e-25
5.9626732e-24
-3.0565694e-25
5.6122038e-24
3.2566138e-25
5.2262498e-24
2.8923212e-25
5.062312e-24
-3.9712587e-25
6.7442977e-24
-2.7088881e-24
5.7835345e-24
5.4433403e-24
5.0408213e-24
4.1207055e-24
4.8226341e-24
4.4256187e-24
8.3991548e-25
5.0311956e-24
-5.5232008e-25
4.9771061e-24
4.1104386e-25
4.9313366e-24
4.3809556e-25
4.9065151e-24
3.4702245e-25
4.892082e-24
2.270032e-25
4.8921015e-24
9.996488e-26
4.9107513e-24
-1.6125444e-26
4.9453475e-24
-1.0937138e-25
4.9901144e-24
-1.7969164e-25
5.0408552e-24
-2.3358571e-25
5.0965168e-24
-2.772773e-25
5.1576916e-24
-3.1360617e-25
5.2242313e-24
-3.4062916e-25
5.2911391e-24
-3.4983237e-25
5.3447755e-24
-3.2759547e-25
5.3635279e-24
-2.686851e-25
5.3423562e-24
-2.1565387e-25
5.3588279e-24
-2.8849158e-25
5.3941116e-24
-3.6312753e-25
5.5822152e-24
-5.9147157e-25
5.5043982e-24
-2.5369681e-25
5.1505349e-24
-3.7981909e-26
6.8471851e-24
-2.4789692e-24
5.75544e-24
5.3585602e-24
4.9673193e-24
4.0691252e-24
4.4348197e-24
5.8331532e-24
4.840314e-24
1.403883e-24
4.8086173e-24
4.6979226e-25
4.826953e-24
3.2868682e-25
4.8208233e-24
2.3313289e-25
4.8069491e-24
1.1383909e-25
4.8079483e-24
-1.7124698e-26
4.8285557e-24
-1.2997878e-25
4.8642636e-24
-2.1539949e-25
4.9102834e-24
-2.7960552e-25
4.9658771e-24
-3.3287098e-25
5.0325641e-24
-3.8029321e-25
5.1122781e-24
-4.203432e-25
5.2003206e-24
-4.3787488e-25
5.2774833e-24
-4.0475808e-25
5.3014202e-24
-2.9262202e-25
5.1932764e-24
-1.0751015e-25
5.2254327e-24
-3.2064781e-25
5.060618e-24
-1.9831289e-25
6.4391448e-24
-1.9699983e-24
5.2791064e-24
4.1392843e-24
5.1471461e-24
4.5187387e-24
1.0981996e-24
4.6651235e-24
1.8230202e-25
4.6960161e-24
2.0224031e-25
4.6844788e-24
1.2537638e-25
4.6782008e-24
-1.0846682e-26
4.6888473e-24
-1.4062529e-25
4.714912e-24
-2.4146419e-25
4.7536427e-24
-3.1833618e-25
4.8053972e-24
-3.8462549e-25
4.8737788e-24
-4.4867481e-25
4.9648114e-24
-5.1137582e-25
5.080141e-24
-5.532045e-25
5.2054297e-24
-5.3004676e-25
5.2924445e-24
-3.7963681e-25
4.9401903e-24
2.4474401e-25
6.1907538e-24
-1.5712113e-24
4.3559991e-24
5.0144063e-24
4.5126901e-24
6.840181e-25
4.5329282e-24
1.8200222e-25
4.515989e-24
1.4231559e-25
4.5131523e-24
-8.0099617e-27
4.521477e-24
-1.4895004e-25
4.5394525e-24
-2.5943964e-25
4.5671939e-24
-3.4607761e-25
4.6074066e-24
-4.2483815e-25
4.6650462e-24
-5.0631444e-25
4.7518361e-24
-5.9816566e-25
4.8870116e-24
-6.8838004e-25
5.0650897e-24
-7.0812488e-25
6.1842731e-24
-1.4988202e-24
4.4327358e-24
5.1981903e-24
4.309078e-24
1.0711144e-24
4.2836813e-24
1.6771231e-25
4.307197e-24
-3.1525701e-26
4.3250099e-24
-1.6676293e-25
4.3371798e-24
-2.7160948e-25
4.3501076e-24
-3.5900547e-25
4.3686868e-24
-4.4341734e-25
4.3949346e-24
-5.3256225e-25
4.438427e-24
-6.4165801e-25
4.5378803e-24
-7.8783337e-25
5.6582068e-24
-1.8284514e-24
3.5582818e-24
-7.6684591e-26
3.9111711e-24
-1.8517704e-25
4.0597651e-24
-1.8011966e-25
4.1057688e-24
-2.1276659e-25
4.112761e-24
-2.7860171e-25
4.1057445e-24
-3.5198897e-25
4.0927671e-24
-4.3043994e-25
4.063299e-24
-5.0309415e-25
3.9922487e-24
-5.7060776e-25
3.828848e-24
-6.2443256e-25
-6.3188496e-25
4.3069459e-24
3.8584673e-24
2.6330159e-25
3.9061989e-24
-2.2785135e-25
3.8967598e-24
-2.0332742e-25
3.8745855e-24
-2.5642747e-25
3.848299e-24
-3.2570244e-25
3.8132442e-24
-3.9538515e-25
3.7632817e-24
-4.531316e-25
3.6833836e-24
-4.907097e-25
3.5706578e-24
-5.1170679e-25
-5.4387936e-25
4.5201751e-24
3.7267961e-24
5.6552761e-25
3.6623227e-24
-1.3885405e-25
3.6209347e-24
-2.1503943e-25
3.5814795e-24
-2.8624722e-25
3.53583e-24
-3.4973564e-25
3.486069e-24
-4.033706e-25
3.4224132e-24
-4.2705391e-25
3.3226685e-24
-4.1196216e-25
-3.7829636e-25
3.3292522e-24
-2.5946254e-25
3.374037e-24
-1.8363889e-25
3.3475973e-24
-1.8859973e-25
3.3047003e-24
-2.4335018e-25
3.2571275e-24
-3.0216287e-25
3.2164935e-24
-3.6273656e-25
3.2002028e-24
-4.1076324e-25
3.2498674e-24
-4.6162679e-25
-5.1152945e-25
3.780215e-24
3.1354807e-24
3.0764959e-24
3.0252099e-24
2.9731818e-24
2.9185526e-24
2.8669436e-24
2.807778e-24
3.5503525e-24
1.7561787e-24
-1.6799491e-24
-3.6265821e-24
3.4771635e-24
1.7814678e-24
-1.7082788e-24
3.4135591e-24
1.8179613e-24
-1.7543569e-24
3.378555e-24
1.8509399e-24
-1.8159358e-24
3.4298319e-24
1.8307057e-24
-1.8819826e-24
4.527669e-24
1.6285073e-24
-2.7263445e-24
1.1756676e-24
3.806584e-24
1.803648e-24
-1.7291216e-24
3.7314631e-24
1.8083206e-24
-1.7331997e-24
3.6559093e-24
1.8170075e-24
-1.7414537e-24
3.5812769e-24
1.8308111e-24
3.5102494e-24
1.8524953e-24
3.4461613e-24
1.8820493e-24
3.3879285e-24
1.9091727e-24
3.3095109e-24
1.9091233e-24
3.0710417e-24
1.8669765e-24
1.8212935e-24
3.8336408e-24
1.8765647e-24
3.7598856e-24
1.8820758e-24
3.6851184e-24
1.8917747e-24
3.609935e-24
1.9059945e-24
3.535835e-24
1.9265953e-24
3.4618912e-24
1.9559931e-24
3.3796697e-24
1.9913943e-24
3.2644688e-24
2.0243242e-24
3.0740925e-24
2.0573528e-24
3.0010933e-24
3.8609392e-24
1.9475027e-24
3.7888003e-24
1.9542147e-24
3.7148923e-24
1.9656826e-24
3.6396304e-24
1.9812565e-24
3.5634575e-24
2.0027682e-24
3.4859407e-24
2.0335099e-24
3.4038315e-24
2.0735035e-24
3.3205758e-24
2.1075798e-24
3.2858332e-24
2.0920954e-24
4.3702578e-24
1.9166688e-24
1.5215849e-24
3.888802e-24
2.0163148e-24
3.8183323e-24
2.0246844e-24
3.7456901e-24
2.0383248e-24
3.6708492e-24
2.0560974e-24
3.5937959e-24
2.0798216e-24
3.5122054e-24
2.1151004e-24
3.4167789e-24
2.16893e-24
3.282598e-24
2.2417607e-24
3.0550363e-24
2.319657e-24
2.5969781e-24
2.374727e-24
2.2384399e-24
3.9177763e-24
2.0834661e-24
3.848497e-24
2.0939637e-24
3.7775324e-24
2.1092894e-24
3.7038697e-24
2.1297601e-24
3.6277225e-24
2.1559687e-24
3.5483316e-24
2.1944913e-24
3.4600306e-24
2.257231e-24
3.3490587e-24
2.3527326e-24
3.1961268e-24
2.472589e-24
2.982912e-24
2.5879417e-24
3.5167809e-24
3.9484583e-24
2.1498771e-24
3.8795555e-24
2.1628664e-24
3.8103729e-24
2.178472e-24
3.7394658e-24
2.2006672e-24
3.6658843e-24
2.2295502e-24
3.5930605e-24
2.2673151e-24
3.5235401e-24
2.3267514e-24
3.4592076e-24
2.4170651e-24
3.4113886e-24
2.5204081e-24
3.4302793e-24
2.569051e-24
4.5211948e-24
2.4258654e-24
1.9441576e-24
3.9787781e-24
2.2182761e-24
3.9094227e-24
2.2322219e-24
3.8451214e-24
2.2427733e-24
3.7778288e-24
2.2679599e-24
3.7086035e-24
2.2987754e-24
3.6389818e-24
2.3369369e-24
3.5800416e-24
2.3856915e-24
3.5344642e-24
2.4626425e-24
3.4919296e-24
2.5629427e-24
3.4132818e-24
2.6476988e-24
3.1579272e-24
2.6812199e-24
3.6169252e-24
3.9982321e-24
2.2984478e-24
3.9298871e-24
2.3005669e-24
3.882735e-24
2.2899254e-24
3.8246486e-24
2.3260463e-24
3.7545754e-24
2.3688486e-24
3.6892996e-24
2.4022127e-24
3.6292343e-24
2.4457568e-24
3.5936014e-24
2.4982755e-24
3.5751881e-24
2.5813559e-24
3.5590544e-24
2.6638325e-24
3.5595466e-24
2.6807278e-24
4.6494066e-24
2.5270652e-24
2.068543e-24
3.977789e-24
2.4224237e-24
3.9209754e-24
2.3573805e-24
3.9280236e-24
2.2828772e-24
3.8875623e-24
2.3665076e-24
3.8169493e-24
2.4394616e-24
3.7441965e-24
2.4749654e-24
3.6807558e-24
2.5091976e-24
3.6457031e-24
2.5333282e-24
3.637594e-24
2.589465e-24
3.6334403e-24
2.6679862e-24
3.5793513e-24
2.7348168e-24
3.3223766e-24
2.78404e-24
3.8282332e-24
3.8429596e-24
4.253418e-24
3.8464124e-24
2.3539276e-24
4.0023656e-24
2.1269241e-24
3.9706451e-24
2.398228e-24
3.895009e-24
2.5150977e-24
3.8103491e-24
2.5596253e-24
3.7540489e-24
2.5654978e-24
3.7059057e-24
2.5814713e-24
3.7047243e-24
2.5906464e-24
3.736984e-24
2.6357264e-24
3.7913183e-24
2.6804825e-24
3.9120516e-24
2.6633068e-24
5.2794128e-24
2.460872e-24
2.9265528e-24
4.5923424e-24
3.6669705e-24
3.2792995e-24
4.161453e-24
1.6324416e-24
4.0508219e-24
2.5088592e-24
3.9745985e-24
2.591321e-24
3.8938435e-24
2.6403803e-24
3.8154754e-24
2.6438659e-24
3.7771704e-24
2.6197763e-24
3.7699956e-24
2.5978212e-24
3.8113183e-24
2.5944038e-24
3.8856677e-24
2.606133e-24
3.974422e-24
2.5745525e-24
4.0231044e-24
2.4121896e-24
4.7881635e-24
2.1614937e-24
2.1073704e-24
3.602773e-24
5.3582316e-24
4.0156172e-24
3.8514735e-24
4.0266068e-24
2.5803315e-24
3.9818054e-24
2.6851817e-24
3.9091302e-24
2.716541e-24
3.8598171e-24
2.6690894e-24
3.8477222e-24
2.6099162e-24
3.8765633e-24
2.5655626e-24
3.9360562e-24
2.5466401e-24
3.9733298e-24
2.5372789e-24
3.8567325e-24
2.5287869e-24
3.4150424e-24
2.6031838e-24
3.8823112e-24
4.7733093e-24
3.9785202e-24
3.3751205e-24
4.0009605e-24
2.6627414e-24
3.9638263e-24
2.7536752e-24
3.9356173e-24
2.6972985e-24
3.9399354e-24
2.6055981e-24
3.9698032e-24
2.5356948e-24
4.0262947e-24
2.4901486e-24
4.0833023e-24
2.4802713e-24
4.128635e-24
2.4834543e-24
4.2603779e-24
2.4714409e-24
5.8230704e-24
2.3196188e-24
2.9515842e-24
5.2340133e-24
3.9729521e-24
3.9238026e-24
3.9745313e-24
2.7520961e-24
4.0018972e-24
2.6699326e-24
4.0324067e-24
2.5750885e-24
4.0836913e-24
2.4844101e-24
4.1435574e-24
2.4302825e-24
4.2217257e-24
2.402103e-24
4.300709e-24
2.404471e-24
4.3796127e-24
2.3925371e-24
4.4054859e-24
2.2937456e-24
5.2605701e-24
2.0965e-24
2.1420534e-24
3.4914799e-24
1.6842289e-24
3.9332138e-24
2.3103622e-24
4.0772047e-24
2.5259417e-24
4.1469885e-24
2.5053047e-24
4.2129667e-24
2.418432e-24
4.2953563e-24
2.3478929e-24
4.3784608e-24
2.3189985e-24
4.4574302e-24
2.3255017e-24
4.4784689e-24
2.3714984e-24
4.3072947e-24
2.4649198e-24
3.7621578e-24
2.641637e-24
4.0337725e-24
5.491959e-24
4.2172537e-24
3.5850675e-24
4.1907278e-24
2.5524675e-24
4.2538333e-24
2.4421992e-24
4.346731e-24
2.3255343e-24
4.4528616e-24
2.2417623e-24
4.5633395e-24
2.2085206e-24
4.6739599e-24
2.2148812e-24
4.7805278e-24
2.2649304e-24
4.9027862e-24
2.3426614e-24
5.1426071e-24
2.4018161e-24
6.886954e-24
2.2894256e-24
2.9842616e-24
3.9455511e-24
2.2469881e-24
4.1522638e-24
2.3457548e-24
4.3313937e-24
2.2630693e-24
4.4861511e-24
2.1707769e-24
4.6253333e-24
2.10258e-24
4.7613527e-24
2.0725012e-24
4.9006272e-24
2.0756068e-24
5.0568238e-24
2.1087339e-24
5.2438665e-24
2.1556187e-24
5.4759191e-24
2.1697635e-24
5.6983574e-24
2.0669873e-24
6.8585941e-24
1.824025e-24
3.1032489e-24
-2.0733389e-24