/*--------------------------------*- C++ -*----------------------------------*\
| =========                 |                                                 |
| \\      /  F ield         | OpenFOAM: The Open Source CFD Toolbox           |
|  \\    /   O peration     | Version:  2412                                  |
|   \\  /    A nd           | Website:  www.openfoam.com                      |
|    \\/     M anipulation  |                                                 |
\*---------------------------------------------------------------------------*/
FoamFile
{
    version     2.0;
    format      ascii;
    arch        "LSB;label=32;scalar=64";
    class       volVectorField;
    location    "15174";
    object      U;
}
// * * * * * * * * * * * * * * * * * * * * * * * * * * * * * * * * * * * * * //

dimensions      [0 1 -1 0 0 0 0];

internalField   nonuniform List<vector> 
57274
(
(6.5188937e-07 2.7033555e-07 1.2731746e-25)
(6.5142227e-07 2.5791668e-07 2.0667553e-25)
(6.5355884e-07 2.4680436e-07 6.5395914e-25)
(6.5270229e-07 2.3607021e-07 -8.8465457e-25)
(6.6274258e-07 2.7045116e-07 -3.5277398e-26)
(6.6342162e-07 2.5902973e-07 -1.0464827e-26)
(6.6502183e-07 2.4814856e-07 -2.1224428e-25)
(6.6445376e-07 2.3554799e-07 2.773883e-25)
(6.6429877e-07 2.2442315e-07 -1.8222005e-25)
(6.6460783e-07 2.13783e-07 -5.6426733e-25)
(6.6995304e-07 2.6897799e-07 -9.5831093e-26)
(6.7182282e-07 2.5787175e-07 5.8462129e-26)
(6.740595e-07 2.4688779e-07 1.0042163e-26)
(6.7608997e-07 2.3541124e-07 -1.7281811e-26)
(6.7745288e-07 2.2483711e-07 2.9043886e-26)
(6.7807827e-07 2.1215744e-07 -6.4271915e-26)
(6.7944396e-07 1.9874424e-07 4.2232398e-25)
(6.8277621e-07 1.866991e-07 -6.4692286e-26)
(6.8345123e-07 1.756829e-07 -1.3134814e-24)
(6.7262896e-07 2.7748766e-07 3.6671484e-26)
(6.7565246e-07 2.6657482e-07 -1.0055368e-27)
(6.7845384e-07 2.5559961e-07 2.6424114e-26)
(6.8133613e-07 2.4451797e-07 -5.242718e-27)
(6.8408629e-07 2.330918e-07 3.719245e-26)
(6.8684146e-07 2.2192355e-07 -1.5678722e-26)
(6.8986721e-07 2.0985757e-07 5.4836771e-26)
(6.9226057e-07 1.9780937e-07 -7.5672686e-26)
(6.9540211e-07 1.8625537e-07 -1.6731857e-25)
(6.9677166e-07 1.7346209e-07 2.117059e-25)
(6.9843799e-07 1.6135332e-07 3.924405e-25)
(7.0057513e-07 1.50299e-07 1.2978168e-24)
(6.7608026e-07 2.7394832e-07 6.9226406e-27)
(6.7981342e-07 2.6329688e-07 -1.180242e-26)
(6.8338902e-07 2.5242491e-07 -1.1106185e-27)
(6.8695966e-07 2.4133156e-07 -8.4390751e-27)
(6.9048927e-07 2.2995422e-07 1.2907143e-26)
(6.9408985e-07 2.1850808e-07 -1.4377398e-26)
(6.977465e-07 2.0661171e-07 3.6843738e-26)
(7.0130071e-07 1.9476896e-07 1.8246049e-26)
(7.0533214e-07 1.8301233e-07 2.0224139e-26)
(7.0944141e-07 1.7074403e-07 -6.0129834e-26)
(7.1285453e-07 1.5945602e-07 -4.0391783e-26)
(7.159921e-07 1.4650958e-07 6.0287328e-25)
(7.1988865e-07 1.313263e-07 -1.2194041e-24)
(7.2482411e-07 1.1741098e-07 3.9022062e-26)
(7.2609824e-07 1.0563625e-07 3.8639226e-25)
(6.7814392e-07 2.6977159e-07 -5.8902381e-27)
(6.8250382e-07 2.5929816e-07 -6.7620134e-27)
(6.8674555e-07 2.4850717e-07 1.4088167e-26)
(6.9096712e-07 2.3741804e-07 -5.8338082e-27)
(6.9519578e-07 2.2603257e-07 4.4318937e-27)
(6.9950589e-07 2.1444365e-07 -1.1349868e-26)
(7.0389693e-07 2.0255162e-07 -9.0416126e-27)
(7.0836674e-07 1.9058155e-07 1.4264179e-26)
(7.1313697e-07 1.7853025e-07 -1.0984991e-26)
(7.1799321e-07 1.6618387e-07 2.4146839e-26)
(7.2295714e-07 1.5412774e-07 8.7633559e-26)
(7.2838426e-07 1.4111875e-07 -1.336848e-26)
(7.3311829e-07 1.279076e-07 -1.2778919e-26)
(7.3792905e-07 1.1515593e-07 7.8035565e-26)
(7.4058936e-07 1.0199911e-07 -1.9560821e-25)
(7.4335041e-07 8.9053043e-08 -2.3030294e-25)
(7.4836865e-07 7.7468774e-08 9.3479011e-25)
(7.5066031e-07 6.7751046e-08 -4.1224856e-25)
(6.7885368e-07 2.6503068e-07 1.5369049e-26)
(6.8377149e-07 2.5469356e-07 6.0640186e-29)
(6.8859228e-07 2.4396375e-07 -2.988052e-27)
(6.9339516e-07 2.3286706e-07 -1.8262385e-27)
(6.9823306e-07 2.2143345e-07 1.829832e-27)
(7.0316603e-07 2.0972403e-07 -1.0333099e-26)
(7.0821781e-07 1.9773835e-07 8.0798719e-27)
(7.1341912e-07 1.8558653e-07 1.0534678e-26)
(7.1886632e-07 1.7328729e-07 -8.2513966e-27)
(7.2448122e-07 1.6079291e-07 -1.4760061e-26)
(7.3029164e-07 1.4832228e-07 -8.5177249e-26)
(7.3621249e-07 1.3548786e-07 -2.223995e-26)
(7.4191125e-07 1.2270764e-07 2.89918e-26)
(7.4768857e-07 1.1008313e-07 -1.791218e-26)
(7.5308521e-07 9.7264486e-08 4.2984726e-26)
(7.5748069e-07 8.5579251e-08 -1.0085787e-27)
(7.6250875e-07 7.4722121e-08 -1.6030391e-25)
(7.6618234e-07 6.3633268e-08 -3.2634795e-25)
(7.6987266e-07 5.1268347e-08 -5.4605406e-25)
(7.753701e-07 3.989884e-08 -1.4931332e-25)
(7.7927023e-07 3.0429298e-08 2.4193571e-25)
(7.8221603e-07 2.3559377e-08 6.3587539e-25)
(7.8281724e-07 1.9127387e-08 2.8718127e-25)
(8.5256182e-07 -8.0227372e-08 -5.7549815e-25)
(8.5803516e-07 -7.8811586e-08 -7.5019846e-26)
(8.5859944e-07 -7.6129881e-08 1.9796712e-25)
(8.5897254e-07 -7.3101792e-08 1.8895499e-25)
(8.5927585e-07 -7.0153199e-08 5.5959708e-26)
(8.5945362e-07 -6.7375655e-08 -1.6240596e-26)
(8.5954895e-07 -6.480718e-08 3.4254718e-25)
(8.5956827e-07 -6.2487095e-08 -5.8254774e-26)
(8.5952322e-07 -6.0463129e-08 1.4504919e-25)
(8.5948046e-07 -5.8800931e-08 -8.2852005e-26)
(6.7822044e-07 2.5978409e-07 -9.5546614e-27)
(6.8363877e-07 2.4956054e-07 -3.0989138e-27)
(6.8896555e-07 2.3888122e-07 1.3309568e-27)
(6.9427579e-07 2.2776498e-07 -6.8678434e-28)
(6.9963805e-07 2.1626061e-07 -5.3274144e-27)
(7.0510822e-07 2.0442126e-07 5.1073444e-27)
(7.1072527e-07 1.92286e-07 -6.4112123e-27)
(7.1652707e-07 1.7993289e-07 7.6222684e-28)
(7.2256321e-07 1.6740783e-07 4.7606574e-27)
(7.288026e-07 1.5473457e-07 -1.8397125e-26)
(7.3523569e-07 1.4202394e-07 3.4610526e-26)
(7.4175965e-07 1.2919461e-07 -3.6053252e-26)
(7.4822698e-07 1.1647651e-07 1.8349133e-26)
(7.5467991e-07 1.0393981e-07 7.09343e-27)
(7.6079043e-07 9.1551164e-08 -1.3254725e-26)
(7.6650561e-07 8.0035619e-08 -4.1184624e-26)
(7.7250957e-07 6.9032055e-08 5.0161004e-27)
(7.7840739e-07 5.7723343e-08 -2.2356355e-26)
(7.8328647e-07 4.710832e-08 1.8018375e-26)
(7.8827958e-07 3.6890858e-08 1.3041191e-25)
(7.926991e-07 2.818826e-08 4.6978354e-28)
(7.9635868e-07 2.1603057e-08 -1.3731768e-26)
(7.9808097e-07 1.6113742e-08 -1.0126492e-24)
(7.9984572e-07 8.1121292e-09 4.81598e-25)
(8.0337091e-07 1.2321731e-09 -7.1121371e-25)
(8.0726416e-07 -4.4129772e-09 7.2860473e-27)
(8.1016719e-07 -9.2513438e-09 6.6108453e-26)
(8.1187928e-07 -1.2728193e-08 -2.6708724e-25)
(8.137237e-07 -1.5329515e-08 1.615203e-25)
(8.156393e-07 -1.731098e-08 4.2104782e-26)
(8.1703913e-07 -1.8782739e-08 2.7700301e-25)
(8.1531962e-07 -1.9945322e-08 1.2543952e-24)
(8.3552447e-07 -9.5280645e-08 5.0174365e-25)
(8.4072928e-07 -9.527347e-08 -4.1584249e-25)
(8.4304588e-07 -9.4621835e-08 -2.0305818e-26)
(8.4482309e-07 -9.3994579e-08 -5.5991491e-26)
(8.4646081e-07 -9.3485323e-08 1.1278628e-25)
(8.4805082e-07 -9.3046343e-08 -6.4144435e-26)
(8.4965581e-07 -9.2642819e-08 -9.0766282e-26)
(8.5125525e-07 -9.2238815e-08 -2.4506741e-26)
(8.5288452e-07 -9.1809281e-08 -1.6853471e-25)
(8.5427998e-07 -9.1335569e-08 1.3580772e-25)
(8.5521824e-07 -9.0701365e-08 -1.3995488e-25)
(8.5597273e-07 -8.9851542e-08 -1.1592709e-25)
(8.5672202e-07 -8.8829059e-08 3.1835744e-26)
(8.5744254e-07 -8.7659865e-08 3.982391e-26)
(8.5820072e-07 -8.6383421e-08 2.3241675e-25)
(8.5896587e-07 -8.5065414e-08 -5.165663e-26)
(8.6005194e-07 -8.3677464e-08 -7.0226689e-25)
(8.6503403e-07 -8.1766335e-08 3.7543639e-25)
(8.7005978e-07 -8.0004587e-08 -2.5669146e-25)
(8.7096761e-07 -7.7362339e-08 -3.0214646e-26)
(8.7148388e-07 -7.4378553e-08 1.7032659e-26)
(8.7186594e-07 -7.1424596e-08 1.1149368e-25)
(8.7214989e-07 -6.8605077e-08 1.1858666e-25)
(8.7236456e-07 -6.5976168e-08 -8.5951132e-26)
(8.7250764e-07 -6.3582743e-08 5.9375174e-26)
(8.7257613e-07 -6.146818e-08 -9.8562268e-26)
(8.7258588e-07 -5.9677285e-08 4.1557493e-26)
(6.7625684e-07 2.540727e-07 -5.0775805e-28)
(6.8211834e-07 2.439595e-07 -2.5459653e-27)
(6.8788592e-07 2.3333378e-07 -1.8247243e-27)
(6.9363069e-07 2.2218829e-07 4.628737e-27)
(6.9943997e-07 2.1059973e-07 2.8489215e-27)
(7.0536476e-07 1.986197e-07 1.8241557e-27)
(7.1145468e-07 1.8630777e-07 1.2857155e-27)
(7.1775001e-07 1.7373827e-07 -1.3471343e-27)
(7.2428325e-07 1.6098464e-07 1.6501669e-27)
(7.3103828e-07 1.4811386e-07 7.3437109e-27)
(7.3798767e-07 1.3522312e-07 2.0592856e-26)
(7.4504754e-07 1.2234885e-07 4.7214922e-27)
(7.5211956e-07 1.0963687e-07 -3.5054931e-27)
(7.5916199e-07 9.7174873e-08 8.3031539e-27)
(7.6599786e-07 8.5028072e-08 -1.6920693e-26)
(7.7261671e-07 7.3537587e-08 5.0352682e-26)
(7.7922273e-07 6.2554055e-08 2.2115944e-26)
(7.8548117e-07 5.1803406e-08 -4.2923198e-26)
(7.9112831e-07 4.1826067e-08 5.5241583e-26)
(7.9647518e-07 3.2532009e-08 2.4856888e-27)
(8.0140352e-07 2.4336643e-08 2.8571477e-28)
(8.0593301e-07 1.7434518e-08 6.7807796e-27)
(8.1017077e-07 1.0968356e-08 3.217107e-25)
(8.1343395e-07 4.8723878e-09 4.7462501e-26)
(8.1684015e-07 -1.0018956e-09 5.5994352e-26)
(8.2033687e-07 -6.1328137e-09 5.337671e-26)
(8.2313332e-07 -1.0537619e-08 9.1567081e-26)
(8.2521067e-07 -1.3858551e-08 7.1245364e-26)
(8.2719182e-07 -1.6446893e-08 -9.5761798e-26)
(8.2916441e-07 -1.8518426e-08 6.9458573e-26)
(8.3062521e-07 -2.0239102e-08 2.2457014e-25)
(8.297821e-07 -2.2197696e-08 -1.1803279e-24)
(8.2952848e-07 -2.7794858e-08 2.9105289e-25)
(8.3109572e-07 -3.3559701e-08 -3.9822794e-26)
(8.3232058e-07 -3.9096259e-08 1.5898714e-26)
(8.3337543e-07 -4.4201258e-08 1.5557724e-28)
(8.3467463e-07 -4.9091001e-08 -3.4169922e-28)
(8.3608518e-07 -5.3853002e-08 2.0854374e-30)
(8.3759741e-07 -5.8533182e-08 1.2697185e-28)
(8.3922091e-07 -6.3167841e-08 8.343942e-28)
(8.4093636e-07 -6.7798131e-08 -6.7202025e-28)
(8.4279083e-07 -7.2480631e-08 -2.2279248e-26)
(8.4493413e-07 -7.7366715e-08 -7.7647989e-26)
(8.4728974e-07 -8.2750529e-08 5.2110124e-26)
(8.4925986e-07 -8.8846339e-08 2.8125037e-25)
(8.5187224e-07 -9.5102292e-08 -2.5273106e-25)
(8.5484333e-07 -9.5958945e-08 3.5965224e-26)
(8.5634639e-07 -9.5896732e-08 -8.4260422e-26)
(8.5764808e-07 -9.5618796e-08 4.2315364e-26)
(8.5903706e-07 -9.5286982e-08 2.8301298e-26)
(8.6049839e-07 -9.4933016e-08 6.3784006e-26)
(8.6201575e-07 -9.4568673e-08 -1.6467804e-26)
(8.6354981e-07 -9.4176449e-08 8.5838749e-26)
(8.6507419e-07 -9.3731776e-08 2.2962351e-26)
(8.6644933e-07 -9.3228355e-08 -5.7217233e-27)
(8.6758106e-07 -9.2579517e-08 2.1467553e-25)
(8.6857004e-07 -9.1717423e-08 9.4293716e-26)
(8.6948586e-07 -9.0674169e-08 9.3933173e-26)
(8.7034455e-07 -8.947205e-08 -7.4602676e-26)
(8.7118471e-07 -8.8130293e-08 -7.4800814e-26)
(8.720117e-07 -8.6663492e-08 1.549373e-26)
(8.7317071e-07 -8.4910469e-08 1.1475891e-25)
(8.7524404e-07 -8.2427937e-08 4.5232982e-25)
(8.7686225e-07 -8.0539504e-08 2.9965067e-25)
(8.7751804e-07 -7.7912422e-08 -4.7443996e-27)
(8.7791345e-07 -7.4991216e-08 -1.9901571e-26)
(8.7821221e-07 -7.2048187e-08 -3.8699175e-26)
(8.7844841e-07 -6.9196556e-08 1.7207008e-26)
(8.7863081e-07 -6.6507445e-08 -1.1917868e-26)
(8.7874643e-07 -6.4029638e-08 9.377866e-28)
(8.7877867e-07 -6.1803225e-08 3.1572327e-26)
(8.7872324e-07 -5.985841e-08 3.6666158e-26)
(6.7302216e-07 2.4793527e-07 7.83974e-27)
(6.7923448e-07 2.3793563e-07 1.3402623e-28)
(6.8537118e-07 2.2738983e-07 -8.8647336e-27)
(6.9147463e-07 2.162102e-07 5.6230656e-27)
(6.9766108e-07 2.0453347e-07 6.5209398e-28)
(7.0396297e-07 1.9240358e-07 8.3321527e-28)
(7.1044268e-07 1.7989886e-07 -3.4039858e-28)
(7.1714191e-07 1.6709962e-07 3.707855e-29)
(7.2409113e-07 1.5410714e-07 -4.6965972e-28)
(7.3127713e-07 1.4102394e-07 -2.2720129e-27)
(7.3866603e-07 1.2795808e-07 -1.2646728e-27)
(7.4618853e-07 1.1499884e-07 3.3979336e-27)
(7.5376174e-07 1.0227063e-07 1.1698244e-28)
(7.6131782e-07 8.9872656e-08 -3.737186e-28)
(7.6874299e-07 7.7893936e-08 2.7922125e-27)
(7.760003e-07 6.6508712e-08 6.8950983e-27)
(7.8311251e-07 5.5689943e-08 -3.4322862e-27)
(7.8987873e-07 4.5379488e-08 4.2220626e-27)
(7.961705e-07 3.5851697e-08 1.8527385e-26)
(8.0206207e-07 2.7126302e-08 -4.4056836e-26)
(8.075441e-07 1.934727e-08 -1.002254e-26)
(8.1264664e-07 1.2547888e-08 8.9017295e-27)
(8.1729058e-07 6.4366283e-09 2.3860039e-27)
(8.2130061e-07 9.3412866e-10 -4.8906913e-27)
(8.2496391e-07 -4.0946007e-09 9.4466495e-26)
(8.2830748e-07 -8.5775918e-09 -1.1076402e-29)
(8.310993e-07 -1.2463074e-08 -4.1132484e-28)
(8.3341385e-07 -1.55662e-08 -3.1207181e-26)
(8.3556803e-07 -1.8154737e-08 2.5386944e-26)
(8.3769055e-07 -2.0460047e-08 -1.4622889e-25)
(8.3964826e-07 -2.28797e-08 -4.0713912e-25)
(8.4149178e-07 -2.6111196e-08 -1.8561621e-25)
(8.4287297e-07 -3.0243054e-08 1.2715114e-25)
(8.4448365e-07 -3.5306219e-08 3.7651661e-26)
(8.4605617e-07 -4.0544751e-08 -5.7933241e-27)
(8.4742267e-07 -4.5608489e-08 -1.909482e-27)
(8.488208e-07 -5.0543487e-08 4.909246e-28)
(8.5026413e-07 -5.538436e-08 1.2723462e-28)
(8.5177262e-07 -6.0157513e-08 -2.5627039e-28)
(8.5335751e-07 -6.4884242e-08 -2.8775646e-28)
(8.5500416e-07 -6.9594088e-08 7.8065492e-29)
(8.5670614e-07 -7.4327144e-08 5.6595827e-27)
(8.5845342e-07 -7.9168798e-08 1.7175124e-28)
(8.6010125e-07 -8.4223044e-08 6.6438743e-26)
(8.6152488e-07 -8.9338884e-08 -9.483838e-26)
(8.6257073e-07 -9.3444768e-08 4.5669544e-26)
(8.6310973e-07 -9.5590389e-08 4.5022779e-27)
(8.6393733e-07 -9.6421455e-08 1.3908366e-25)
(8.648303e-07 -9.6647156e-08 -1.9189794e-26)
(8.6592783e-07 -9.6587029e-08 -2.5806909e-26)
(8.6716152e-07 -9.6375299e-08 -2.658007e-27)
(8.6848355e-07 -9.6081094e-08 2.1637384e-26)
(8.6985363e-07 -9.5712369e-08 -3.1477644e-26)
(8.7122744e-07 -9.5245563e-08 -3.132145e-26)
(8.7249999e-07 -9.466872e-08 -1.0921064e-26)
(8.7362258e-07 -9.3961269e-08 -3.0117247e-26)
(8.7463038e-07 -9.3048215e-08 5.3524409e-26)
(8.7553316e-07 -9.1945871e-08 -3.5541113e-26)
(8.7635738e-07 -9.0679495e-08 -5.2961022e-27)
(8.7714299e-07 -8.924688e-08 7.3843765e-26)
(8.7790347e-07 -8.7611517e-08 1.4138112e-26)
(8.7871939e-07 -8.5614698e-08 2.5693148e-26)
(8.7967191e-07 -8.3187832e-08 -2.0803629e-25)
(8.8038207e-07 -8.0897792e-08 -1.2604627e-25)
(8.8069996e-07 -7.8215552e-08 1.486056e-26)
(8.8086644e-07 -7.5289602e-08 3.3749638e-26)
(8.8096133e-07 -7.2327955e-08 1.8233734e-26)
(8.8101492e-07 -6.9437206e-08 -1.3723956e-26)
(8.8102611e-07 -6.6685011e-08 6.189534e-26)
(8.8097295e-07 -6.4115545e-08 -5.6441791e-26)
(8.8082301e-07 -6.1769638e-08 2.1570848e-26)
(8.8056628e-07 -5.9688181e-08 1.1583331e-26)
(6.6859818e-07 2.4161251e-07 1.2206248e-26)
(6.7501434e-07 2.3154739e-07 -2.6992254e-26)
(6.8145099e-07 2.2113169e-07 2.777728e-26)
(6.8782255e-07 2.0989624e-07 -2.7635862e-26)
(6.9432045e-07 1.9813937e-07 5.1067397e-27)
(7.0092387e-07 1.8585591e-07 1.1011172e-26)
(7.0772394e-07 1.7314774e-07 5.7013722e-27)
(7.1475408e-07 1.6009895e-07 1.5510181e-27)
(7.2205007e-07 1.4684981e-07 2.715759e-27)
(7.2959814e-07 1.3353751e-07 -2.0468359e-27)
(7.3736165e-07 1.2028706e-07 2.5471941e-28)
(7.4528094e-07 1.0721778e-07 1.7258569e-27)
(7.5327618e-07 9.4454659e-08 -2.8080567e-27)
(7.612698e-07 8.210058e-08 2.3494295e-27)
(7.6917094e-07 7.024807e-08 2.8846424e-27)
(7.7692293e-07 5.9010827e-08 -9.3167168e-27)
(7.8448582e-07 4.841946e-08 7.3246789e-27)
(7.9173237e-07 3.849425e-08 -1.0411908e-26)
(7.985762e-07 2.9378848e-08 6.1674751e-27)
(8.0501605e-07 2.1116045e-08 8.0179491e-27)
(8.1104316e-07 1.3766628e-08 3.874215e-27)
(8.1665874e-07 7.3215211e-09 -9.1680252e-27)
(8.2178434e-07 1.6470372e-09 -1.4247481e-26)
(8.2632737e-07 -3.3292348e-09 1.8442377e-26)
(8.3033832e-07 -7.7132956e-09 -6.0154722e-26)
(8.338355e-07 -1.1562871e-08 2.5152448e-26)
(8.36795e-07 -1.4903347e-08 -2.9354647e-26)
(8.3933023e-07 -1.7736775e-08 -4.0653888e-27)
(8.4165205e-07 -2.028125e-08 -5.4414164e-27)
(8.4389674e-07 -2.2773623e-08 9.4503675e-26)
(8.460719e-07 -2.5546633e-08 6.5265676e-26)
(8.4815789e-07 -2.8854792e-08 1.1590339e-25)
(8.5005312e-07 -3.2801486e-08 3.2220592e-26)
(8.5186276e-07 -3.7365889e-08 -4.8804847e-26)
(8.5352242e-07 -4.227337e-08 2.743193e-28)
(8.5501077e-07 -4.7209285e-08 2.5613902e-27)
(8.5644996e-07 -5.2119185e-08 4.1333437e-29)
(8.5788094e-07 -5.6987642e-08 1.6325293e-28)
(8.5933724e-07 -6.1815856e-08 2.6061351e-28)
(8.6083293e-07 -6.6594658e-08 -6.2390203e-28)
(8.6234896e-07 -7.1328209e-08 2.1080021e-27)
(8.638514e-07 -7.6027558e-08 -1.8712297e-27)
(8.6527782e-07 -8.0711245e-08 8.8306255e-27)
(8.6651643e-07 -8.5362963e-08 -2.9062643e-26)
(8.6744021e-07 -8.9715461e-08 5.5331083e-26)
(8.6794878e-07 -9.3252821e-08 6.1403753e-26)
(8.6824511e-07 -9.551078e-08 1.0692676e-25)
(8.6867342e-07 -9.6786458e-08 -1.0589082e-25)
(8.6923058e-07 -9.740332e-08 5.7073932e-27)
(8.7000029e-07 -9.7600743e-08 5.7072066e-27)
(8.7091131e-07 -9.7539763e-08 -3.2341901e-26)
(8.7192339e-07 -9.7329513e-08 1.7118819e-26)
(8.7301602e-07 -9.6997631e-08 -5.7924686e-27)
(8.7414145e-07 -9.651192e-08 1.2773828e-26)
(8.7516159e-07 -9.5844567e-08 -7.0560066e-27)
(8.7604222e-07 -9.507183e-08 -3.9374889e-26)
(8.7684333e-07 -9.4073279e-08 3.2575763e-26)
(8.7753687e-07 -9.2867982e-08 -1.9495458e-27)
(8.7814205e-07 -9.1517191e-08 -7.9065563e-26)
(8.7870156e-07 -9.0014051e-08 -2.4714918e-26)
(8.7922589e-07 -8.8295882e-08 -7.7775981e-27)
(8.796824e-07 -8.6203743e-08 1.502997e-25)
(8.7993761e-07 -8.3680456e-08 3.2660647e-26)
(8.7993504e-07 -8.1159211e-08 8.1527815e-26)
(8.7988137e-07 -7.8294153e-08 1.6734704e-26)
(8.7981103e-07 -7.5248041e-08 2.5254601e-26)
(8.7969854e-07 -7.2223081e-08 -5.870505e-26)
(8.7957049e-07 -6.9287487e-08 -2.4997377e-26)
(8.794161e-07 -6.6481681e-08 -1.0992511e-25)
(8.7919793e-07 -6.3828489e-08 1.1611984e-26)
(8.7885245e-07 -6.137045e-08 2.0740112e-26)
(8.783864e-07 -5.9190675e-08 -3.1524085e-26)
(6.6283082e-07 2.349631e-07 -6.1701016e-26)
(6.6932429e-07 2.2497937e-07 -4.1295341e-26)
(6.7615576e-07 2.147994e-07 -9.1161614e-27)
(6.8268669e-07 2.033056e-07 9.6698727e-27)
(6.8945243e-07 1.9149462e-07 1.788362e-26)
(6.9626267e-07 1.7906137e-07 -3.3990622e-27)
(7.0333603e-07 1.6614523e-07 -3.5711169e-26)
(7.1064219e-07 1.5281809e-07 4.8068861e-27)
(7.182278e-07 1.3928399e-07 -1.2421292e-26)
(7.260767e-07 1.2572111e-07 5.048176e-28)
(7.3415202e-07 1.1226785e-07 -1.5055276e-27)
(7.4240387e-07 9.9068587e-08 8.4237212e-28)
(7.5075077e-07 8.6256561e-08 6.3254991e-29)
(7.59108e-07 7.3933599e-08 -1.8635842e-27)
(7.6739302e-07 6.2188854e-08 2.4548976e-27)
(7.7554057e-07 5.111143e-08 7.1690164e-30)
(7.8349277e-07 4.0753227e-08 9.9678639e-28)
(7.9116104e-07 3.11603e-08 -1.1061908e-27)
(7.9847837e-07 2.2421322e-08 -9.5475987e-28)
(8.054159e-07 1.4579161e-08 -2.3974246e-27)
(8.1194803e-07 7.6651646e-09 -9.3850459e-28)
(8.1804727e-07 1.6647549e-09 1.0655062e-26)
(8.2364188e-07 -3.5006712e-09 4.8190802e-27)
(8.2865329e-07 -7.9067025e-09 2.0562553e-27)
(8.3305827e-07 -1.166582e-08 1.4327244e-26)
(8.3685802e-07 -1.4891335e-08 1.7112118e-27)
(8.4008191e-07 -1.7693451e-08 -5.2696679e-27)
(8.428445e-07 -2.0187007e-08 -7.9764247e-27)
(8.4531627e-07 -2.2577048e-08 1.4319223e-27)
(8.476355e-07 -2.5074255e-08 -1.1444074e-26)
(8.4986632e-07 -2.7910747e-08 4.9590351e-26)
(8.5200301e-07 -3.1225208e-08 3.9860026e-26)
(8.5399052e-07 -3.5072592e-08 -8.240928e-26)
(8.5582418e-07 -3.9409189e-08 1.907916e-26)
(8.5748456e-07 -4.4079095e-08 -1.0648824e-26)
(8.5898894e-07 -4.88786e-08 -3.7067422e-28)
(8.6040341e-07 -5.3723848e-08 7.7583105e-28)
(8.6176068e-07 -5.8575534e-08 -1.0642064e-27)
(8.6310525e-07 -6.3425168e-08 1.8888809e-27)
(8.6445997e-07 -6.8216281e-08 -1.137711e-27)
(8.6579538e-07 -7.2921759e-08 -2.953299e-27)
(8.6706213e-07 -7.7528814e-08 1.0412679e-26)
(8.6817471e-07 -8.201719e-08 -1.1721875e-26)
(8.6907824e-07 -8.6354981e-08 -2.8120432e-26)
(8.6971912e-07 -9.0267587e-08 -4.4003458e-27)
(8.7004896e-07 -9.345255e-08 -6.5482325e-26)
(8.7021144e-07 -9.5659278e-08 1.8769837e-26)
(8.7035046e-07 -9.7044854e-08 8.6821864e-26)
(8.7056972e-07 -9.7889007e-08 -3.7747055e-26)
(8.7099018e-07 -9.8264543e-08 -1.5609376e-26)
(8.7153818e-07 -9.8313643e-08 -1.9143772e-26)
(8.7217948e-07 -9.8184698e-08 -3.0801357e-26)
(8.7291514e-07 -9.791137e-08 -8.6363064e-28)
(8.7367433e-07 -9.7413852e-08 2.9327245e-26)
(8.7420242e-07 -9.6594916e-08 -1.1332303e-25)
(8.74521e-07 -9.578006e-08 -6.2030624e-27)
(8.7494872e-07 -9.4647592e-08 -4.771717e-26)
(8.753893e-07 -9.329915e-08 -4.1557004e-26)
(8.7577394e-07 -9.1870814e-08 1.3131479e-25)
(8.7612604e-07 -9.0356965e-08 -8.2538088e-27)
(8.7642751e-07 -8.8681964e-08 4.3692711e-27)
(8.7650892e-07 -8.663316e-08 -2.5574155e-25)
(8.7596747e-07 -8.3923582e-08 2.5640518e-26)
(8.7493247e-07 -8.1309959e-08 -5.1971489e-26)
(8.7445994e-07 -7.8075528e-08 6.0102354e-27)
(8.7426596e-07 -7.4831677e-08 -8.8324957e-27)
(8.7408042e-07 -7.1736036e-08 1.0265277e-25)
(8.739241e-07 -6.8777187e-08 2.8832449e-26)
(8.737737e-07 -6.5951675e-08 1.8822515e-26)
(8.7355756e-07 -6.3247702e-08 5.4330771e-26)
(8.7312019e-07 -6.0707456e-08 -2.5769421e-26)
(8.7251437e-07 -5.8476093e-08 4.373483e-26)
(6.5236559e-07 2.2689212e-07 1.9139972e-25)
(6.601654e-07 2.1720505e-07 -1.9952744e-25)
(6.6944768e-07 2.0806954e-07 -6.4640047e-26)
(6.7599328e-07 1.9659967e-07 5.2429899e-28)
(6.8315519e-07 1.8488936e-07 -3.5737502e-26)
(6.8998605e-07 1.7218542e-07 1.6743551e-26)
(6.973459e-07 1.5900425e-07 1.9225315e-26)
(7.0488739e-07 1.4533934e-07 -2.550621e-27)
(7.1270588e-07 1.314799e-07 9.317659e-27)
(7.2079366e-07 1.1764289e-07 3.0099653e-27)
(7.2911121e-07 1.0396418e-07 1.2244888e-27)
(7.3762648e-07 9.0614265e-08 -1.7498999e-27)
(7.462524e-07 7.7742581e-08 2.2330013e-27)
(7.5489517e-07 6.5442117e-08 -1.880147e-27)
(7.6347674e-07 5.3794441e-08 6.8938044e-28)
(7.7193075e-07 4.2874945e-08 4.3980392e-28)
(7.8019805e-07 3.2740331e-08 -5.9271436e-28)
(7.8821335e-07 2.3441796e-08 -3.3100866e-28)
(7.9592345e-07 1.5043544e-08 1.0446058e-28)
(8.0329102e-07 7.5870019e-09 -1.118011e-28)
(8.1027822e-07 1.0962808e-09 1.3501559e-27)
(8.1683856e-07 -4.4380506e-09 -2.0552261e-27)
(8.2289739e-07 -9.0697023e-09 1.5807213e-27)
(8.2837113e-07 -1.2878731e-08 1.9602135e-27)
(8.332005e-07 -1.5992125e-08 -2.1383342e-27)
(8.3736071e-07 -1.8570997e-08 1.1643908e-27)
(8.4087813e-07 -2.0798502e-08 -2.8117748e-28)
(8.4385292e-07 -2.2866909e-08 -4.099967e-27)
(8.4643902e-07 -2.4991015e-08 1.9924109e-27)
(8.4877651e-07 -2.7350601e-08 -1.5852425e-26)
(8.5095554e-07 -3.0108893e-08 2.4214115e-27)
(8.5300291e-07 -3.3339822e-08 -2.9010478e-26)
(8.548872e-07 -3.7060306e-08 3.2832239e-26)
(8.5661169e-07 -4.1246237e-08 2.3743217e-27)
(8.5819266e-07 -4.5748382e-08 2.6006756e-27)
(8.5963597e-07 -5.0417259e-08 2.0725663e-28)
(8.6096197e-07 -5.5169472e-08 -4.1718902e-27)
(8.6217139e-07 -5.9961093e-08 -8.5972032e-27)
(8.6333381e-07 -6.4804137e-08 2.0516221e-27)
(8.6450879e-07 -6.956964e-08 5.8250237e-27)
(8.6564351e-07 -7.4198595e-08 3.1708074e-27)
(8.6665733e-07 -7.8664131e-08 -1.1237053e-26)
(8.6742095e-07 -8.2939508e-08 -7.7234558e-27)
(8.6798285e-07 -8.7082339e-08 -1.2491466e-26)
(8.6844615e-07 -9.0735321e-08 3.0878893e-26)
(8.6872405e-07 -9.3690122e-08 -7.160033e-27)
(8.6880189e-07 -9.5796241e-08 -8.3075636e-26)
(8.6859913e-07 -9.7092535e-08 8.1961502e-26)
(8.6831792e-07 -9.8088145e-08 8.9048252e-26)
(8.6837101e-07 -9.854104e-08 2.8449496e-26)
(8.6862263e-07 -9.8638318e-08 1.3987507e-26)
(8.6895641e-07 -9.8599148e-08 1.646573e-25)
(8.6937856e-07 -9.8463836e-08 -1.3070725e-26)
(8.6974591e-07 -9.8072848e-08 -2.4630184e-26)
(8.6952024e-07 -9.7012567e-08 -1.8239535e-26)
(8.6875018e-07 -9.6162687e-08 2.3281888e-26)
(8.6878344e-07 -9.4700253e-08 -7.2378363e-28)
(8.6916414e-07 -9.3156228e-08 -3.4710245e-26)
(8.6953099e-07 -9.1668188e-08 1.2973756e-26)
(8.698783e-07 -9.0196159e-08 -1.2435316e-25)
(8.7012724e-07 -8.8654067e-08 4.5089342e-26)
(8.6972191e-07 -8.6885586e-08 7.5090388e-26)
(8.6590942e-07 -8.4314646e-08 -4.6465368e-25)
(8.6244541e-07 -8.0836473e-08 2.3751039e-25)
(8.6184715e-07 -7.7149019e-08 -1.5312415e-25)
(8.6152862e-07 -7.3764318e-08 -2.8278053e-25)
(8.6136117e-07 -7.0661897e-08 -1.8993364e-25)
(8.6132766e-07 -6.7733602e-08 -2.8680302e-25)
(8.6137592e-07 -6.4942029e-08 -1.6475521e-25)
(8.613769e-07 -6.2243816e-08 -4.8433026e-26)
(8.6093765e-07 -5.9673678e-08 -1.0376382e-25)
(8.6022123e-07 -5.7437218e-08 7.4978083e-26)
(6.5310373e-07 2.0817384e-07 -3.1169505e-25)
(6.5819704e-07 2.0007224e-07 5.1675242e-27)
(6.6597099e-07 1.8889994e-07 1.2688878e-24)
(6.7565377e-07 1.7808778e-07 5.244869e-27)
(6.8180572e-07 1.6522989e-07 -9.4539016e-26)
(6.8985771e-07 1.5167774e-07 6.3483653e-26)
(6.9764239e-07 1.3768524e-07 1.3151016e-28)
(7.0559733e-07 1.2348638e-07 -5.1554062e-27)
(7.1384627e-07 1.0937519e-07 -3.1939972e-28)
(7.223151e-07 9.5450577e-08 1.3197707e-28)
(7.3100805e-07 8.1929817e-08 -5.2859867e-27)
(7.3983215e-07 6.8993796e-08 4.1848981e-27)
(7.486745e-07 5.6710852e-08 5.6254086e-27)
(7.5745936e-07 4.5151374e-08 -1.7580705e-27)
(7.6612246e-07 3.4380259e-08 2.2411832e-28)
(7.7461222e-07 2.4449695e-08 -4.9996184e-28)
(7.8288073e-07 1.5408674e-08 -4.0404799e-28)
(7.9089072e-07 7.3101071e-09 -2.4263492e-28)
(7.9860933e-07 1.962003e-10 8.2939726e-29)
(8.0599654e-07 -5.9035297e-09 -3.9671628e-28)
(8.1299612e-07 -1.0985252e-08 4.1101655e-28)
(8.1952454e-07 -1.5083569e-08 5.2968958e-28)
(8.254806e-07 -1.8277296e-08 1.205066e-28)
(8.3076783e-07 -2.0709102e-08 -2.4949144e-28)
(8.3532136e-07 -2.2587338e-08 -1.6147029e-27)
(8.3913973e-07 -2.4166798e-08 -2.3888583e-28)
(8.423046e-07 -2.5712422e-08 1.8599549e-27)
(8.4497405e-07 -2.7468842e-08 -8.057618e-28)
(8.472972e-07 -2.9583538e-08 5.5687506e-27)
(8.4938684e-07 -3.2181512e-08 5.772214e-27)
(8.5130113e-07 -3.526935e-08 -6.56676e-27)
(8.5300254e-07 -3.8831882e-08 3.9506806e-27)
(8.5454657e-07 -4.2899187e-08 2.9543537e-27)
(8.5600992e-07 -4.7268188e-08 -6.0443206e-28)
(8.5735847e-07 -5.180394e-08 -1.4347918e-27)
(8.5854983e-07 -5.6429232e-08 3.0710996e-27)
(8.5951206e-07 -6.1108322e-08 -8.3151421e-27)
(8.6039026e-07 -6.5947269e-08 1.7449346e-27)
(8.6136996e-07 -7.0666354e-08 -3.179732e-26)
(8.6233478e-07 -7.5186269e-08 -3.1838872e-27)
(8.6311181e-07 -7.9477355e-08 5.0965853e-27)
(8.6342408e-07 -8.3474301e-08 -2.16098e-26)
(8.6348989e-07 -8.7577504e-08 8.1386862e-27)
(8.6381925e-07 -9.1083958e-08 -1.310686e-26)
(8.6415912e-07 -9.3916549e-08 3.410616e-26)
(8.6417973e-07 -9.5960484e-08 7.4790796e-26)
(8.6336916e-07 -9.6959452e-08 1.329079e-25)
(8.6204016e-07 -9.8044622e-08 -6.9486078e-26)
(8.6173486e-07 -9.8320845e-08 1.2295339e-25)
(8.6190477e-07 -9.8362226e-08 1.3435175e-25)
(8.6211945e-07 -9.8399401e-08 -1.2060761e-25)
(8.6239573e-07 -9.8451186e-08 -8.7359082e-26)
(8.6241163e-07 -9.8331508e-08 9.8219783e-26)
(8.5906379e-07 -9.7404076e-08 6.6391439e-25)
(8.5571313e-07 -9.5604193e-08 2.2131314e-26)
(8.5580688e-07 -9.3674769e-08 4.4775346e-26)
(8.5628893e-07 -9.1988484e-08 7.6140896e-26)
(8.5682885e-07 -9.0497576e-08 8.7987208e-26)
(8.5744448e-07 -8.9097212e-08 9.1959725e-26)
(8.5798606e-07 -8.7660649e-08 -3.8684259e-25)
(8.5756269e-07 -8.5995191e-08 2.9215563e-25)
(8.5264797e-07 -8.4013554e-08 8.5542983e-25)
(6.5903621e-07 1.7955438e-07 -2.7388851e-24)
(6.6421393e-07 1.6949647e-07 1.0332792e-24)
(6.7044216e-07 1.5878304e-07 -9.538984e-26)
(6.815168e-07 1.4427195e-07 -1.670527e-25)
(6.8938876e-07 1.3007097e-07 3.624464e-26)
(6.9706644e-07 1.1545615e-07 7.7716539e-27)
(7.0537708e-07 1.0103567e-07 -1.4096519e-27)
(7.1384359e-07 8.6825958e-08 -8.2440675e-27)
(7.2257956e-07 7.3109502e-08 -3.7491114e-27)
(7.3150902e-07 6.0117006e-08 -4.3715948e-27)
(7.4046083e-07 4.7850837e-08 1.8457212e-27)
(7.4935295e-07 3.6370053e-08 1.6256743e-26)
(7.5811875e-07 2.5733079e-08 -5.1520677e-27)
(7.6671536e-07 1.5981543e-08 4.8412364e-28)
(7.7511837e-07 7.1566707e-09 -6.1044245e-28)
(7.8331342e-07 -6.9569618e-10 2.0604618e-28)
(7.9128439e-07 -7.5285363e-09 -9.0206983e-29)
(7.9900211e-07 -1.329846e-08 4.3153895e-29)
(8.064114e-07 -1.7978003e-08 1.3053387e-29)
(8.134195e-07 -2.1574384e-08 -2.2855662e-28)
(8.198984e-07 -2.41515e-08 2.2685116e-28)
(8.257008e-07 -2.585947e-08 -1.4547764e-28)
(8.3069988e-07 -2.695591e-08 3.0501358e-28)
(8.3484392e-07 -2.7780625e-08 -3.8055502e-28)
(8.381902e-07 -2.8689995e-08 -1.6000979e-27)
(8.4092822e-07 -2.9988629e-08 -4.568805e-27)
(8.4322713e-07 -3.1772738e-08 2.9067416e-27)
(8.4522477e-07 -3.4158708e-08 -1.4785542e-26)
(8.4701933e-07 -3.7053318e-08 4.9404334e-27)
(8.4850105e-07 -4.0403038e-08 -1.6569308e-26)
(8.4981117e-07 -4.4382211e-08 8.6550406e-28)
(8.5117353e-07 -4.8630827e-08 -9.7626441e-27)
(8.5246617e-07 -5.3020442e-08 -1.1741981e-27)
(8.5352569e-07 -5.7482773e-08 -2.8594539e-27)
(8.5410697e-07 -6.1947169e-08 7.8693422e-27)
(8.5450223e-07 -6.6852212e-08 5.4228079e-27)
(8.5530313e-07 -7.152372e-08 2.5603092e-27)
(8.5623181e-07 -7.5952728e-08 -2.2795059e-26)
(8.5688715e-07 -8.0135042e-08 -1.8972188e-26)
(8.5657364e-07 -8.3672241e-08 7.4095102e-26)
(8.5560408e-07 -8.7830746e-08 7.0427409e-27)
(8.5587362e-07 -9.1091125e-08 2.4731417e-26)
(8.5653168e-07 -9.380725e-08 -3.6132167e-26)
(8.5661022e-07 -9.5833236e-08 -9.4087239e-26)
(8.5269863e-07 -9.6820585e-08 -3.3100617e-25)
(8.4865959e-07 -9.7091652e-08 -3.1394892e-25)
(8.4846501e-07 -9.6988802e-08 -4.9745116e-25)
(8.4874746e-07 -9.6954388e-08 -7.7293417e-25)
(8.4904358e-07 -9.7049001e-08 -5.5054699e-25)
(8.4948063e-07 -9.7231862e-08 -1.2347465e-25)
(8.4971698e-07 -9.7230368e-08 -3.2403163e-25)
(8.4574996e-07 -9.6561296e-08 -1.7121348e-24)
(6.6013088e-07 1.5064855e-07 -2.5178485e-24)
(6.7110531e-07 1.3597397e-07 3.5277143e-25)
(6.8063982e-07 1.2217264e-07 -5.1884314e-27)
(6.8689748e-07 1.0746949e-07 -2.961394e-26)
(6.9550848e-07 9.2655885e-08 2.0199133e-27)
(7.0376019e-07 7.8176317e-08 -1.7481055e-26)
(7.1230571e-07 6.4259735e-08 -3.7651861e-26)
(7.2124604e-07 5.1254958e-08 7.4311813e-26)
(7.3021859e-07 3.901122e-08 -1.5686882e-26)
(7.3913196e-07 2.7595178e-08 -8.6169952e-27)
(7.4789423e-07 1.7074008e-08 -1.4210245e-27)
(7.5646694e-07 7.4726755e-09 -6.437279e-27)
(7.6485831e-07 -1.1827536e-09 3.0663301e-27)
(7.730905e-07 -8.8562789e-09 -2.9406305e-28)
(7.8118274e-07 -1.5494986e-08 1.0436149e-28)
(7.8913294e-07 -2.1033774e-08 -2.0444591e-28)
(7.9690252e-07 -2.5408653e-08 -3.734188e-29)
(8.0439742e-07 -2.8581158e-08 1.2734962e-27)
(8.1146137e-07 -3.0574616e-08 -1.1648171e-28)
(8.1787949e-07 -3.1524183e-08 -2.0903354e-27)