/*--------------------------------*- C++ -*----------------------------------*\
| =========                 |                                                 |
| \\      /  F ield         | OpenFOAM: The Open Source CFD Toolbox           |
|  \\    /   O peration     | Version:  2412                                  |
|   \\  /    A nd           | Website:  www.openfoam.com                      |
|    \\/     M anipulation  |                                                 |
\*---------------------------------------------------------------------------*/
FoamFile
{
    version     2.0;
    format      ascii;
    arch        "LSB;label=32;scalar=64";
    class       volScalarField;
    location    "15174";
    object      p;
}
// * * * * * * * * * * * * * * * * * * * * * * * * * * * * * * * * * * * * * //

dimensions      [0 2 -2 0 0 0 0];

internalField   nonuniform List<scalar> 
57521
(
0.0077759641
0.0077760468
0.0077761367
0.007776284
0.0077764669
0.0077766731
0.0077768944
0.0077771224
0.0077773387
0.0077775183
0.0077776956
0.0077731518
0.0077741689
0.007772871
0.0077725453
0.0077720987
0.0077715557
0.007770969
0.0077703342
0.0077696442
0.0077688911
0.0077680661
0.00776716
0.0077661638
0.0077650692
0.0077638691
0.0077625574
0.0077611297
0.0077595828
0.0077579146
0.0077561234
0.0077542078
0.0077521655
0.0077499935
0.0077476884
0.0077452492
0.0077426799
0.0077399952
0.0077372211
0.0077343978
0.0077315847
0.0077287707
0.0077258996
0.0077228886
0.0077196512
0.0077162795
0.0077127885
0.0077091969
0.00770548
0.0077016105
0.0076976435
0.0076936569
0.0076897361
0.0076859648
0.0076823814
0.007678963
0.0076756392
0.0076724466
0.0076693891
0.007666532
0.0076637644
0.0076609909
0.0076581141
0.0076551691
0.0076522395
0.0076494121
0.0076467518
0.0076442951
0.0076420551
0.0076400303
0.007638205
0.0076365463
0.0076350696
0.007633509
0.0076291677
0.0077759555
0.0077759232
0.0077760451
0.0077761764
0.0077763242
0.0077765116
0.0077767387
0.0077770154
0.0077773704
0.007777844
0.0077784523
0.0077794444
0.0077755991
0.0077730574
0.0077718884
0.0077711235
0.0077704791
0.0077698688
0.0077692555
0.0077686122
0.0077679239
0.0077671801
0.0077663711
0.0077654879
0.0077645223
0.0077634666
0.0077623143
0.0077610599
0.0077596987
0.0077582275
0.0077566437
0.0077549453
0.0077531306
0.0077511977
0.0077491447
0.0077469696
0.0077446753
0.0077422619
0.0077397392
0.0077371144
0.0077344022
0.0077316787
0.007728701
0.0077255789
0.0077225021
0.0077192008
0.0077158546
0.007712289
0.0077087473
0.0077052857
0.007701765
0.0076981978
0.0076946141
0.0076910418
0.0076875078
0.0076839496
0.0076804644
0.0076768322
0.0076734015
0.0076701779
0.0076671007
0.0076638907
0.0076609094
0.0076580324
0.0076552523
0.0076525678
0.0076500009
0.0076475848
0.0076453392
0.0076432693
0.0076413732
0.0076396343
0.0076379929
0.0076364136
0.0076354435
0.0076325792
0.0076393479
0.0077759964
0.0077759699
0.0077759945
0.0077760468
0.0077762013
0.0077764226
0.0077767182
0.0077771349
0.0077777126
0.0077784728
0.0077794451
0.0077808361
0.0077717164
0.0077735686
0.0077720847
0.0077711144
0.0077703687
0.0077697116
0.0077690909
0.0077684711
0.0077678287
0.0077671494
0.0077664228
0.00776564
0.0077647928
0.007763874
0.0077628767
0.0077617948
0.0077606228
0.0077593558
0.0077579895
0.00775652
0.0077549441
0.0077532586
0.0077514612
0.0077495504
0.0077475245
0.0077453945
0.0077431554
0.0077408143
0.0077383581
0.0077357465
0.0077331573
0.007729841
0.0077261471
0.0077229729
0.0077194511
0.0077160665
0.0077120821
0.0077083827
0.0077051843
0.0077020722
0.0076989877
0.0076958962
0.0076927357
0.0076894377
0.0076856013
0.0076818014
0.007677267
0.0076732811
0.0076698082
0.0076665326
0.0076624626
0.0076589889
0.0076559974
0.0076533806
0.007650969
0.0076486919
0.0076465515
0.0076445491
0.0076426808
0.0076409486
0.0076393369
0.0076378074
0.0076362677
0.0076346262
0.0076329924
0.0076329851
0.0077759795
0.0077757688
0.0077757913
0.0077756719
0.0077758003
0.0077760023
0.0077762783
0.0077767037
0.0077772921
0.0077780555
0.0077791015
0.0077815106
0.0077744084
0.0077697283
0.0077734088
0.0077726356
0.0077717428
0.0077710213
0.0077703627
0.007769745
0.0077691443
0.0077685379
0.0077679097
0.0077672492
0.0077665475
0.0077657974
0.0077649918
0.0077641243
0.0077631887
0.0077621793
0.0077610903
0.0077599161
0.0077586515
0.007757291
0.0077558295
0.007754262
0.0077525851
0.007750797
0.0077488935
0.0077469044
0.0077448139
0.0077426323
0.0077402981
0.0077376756
0.0077353679
0.0077322861
0.0077272636
0.0077238433
0.0077196228
0.0077188926
0.0077139578
0.0077083192
0.0077050634
0.0077022096
0.007699466
0.0076967455
0.0076939163
0.0076908851
0.0076866584
0.0076803676
0.007673792
0.0076732877
0.0076690176
0.0076654802
0.0076595765
0.0076556076
0.0076527069
0.0076503859
0.0076482983
0.0076462931
0.0076443927
0.0076426021
0.0076409119
0.0076393424
0.0076378843
0.0076365241
0.0076352048
0.0076338189
0.0076330044
0.0076309763
0.0077756918
0.0077755431
0.0077752455
0.0077753201
0.0077754946
0.0077756915
0.0077761204
0.0077766901
0.007777498
0.0077786063
0.0077799382
0.0077815292
0.0077758992
0.0077700515
0.0077731814
0.0077721191
0.0077725974
0.0077719473
0.0077713166
0.0077707283
0.0077701483
0.0077695803
0.0077690124
0.0077684317
0.0077678287
0.007767196
0.0077665275
0.0077658172
0.0077650598
0.0077642497
0.0077633817
0.0077624501
0.0077614494
0.0077603734
0.0077592156
0.0077579693
0.0077566271
0.0077551816
0.007753628
0.0077519643
0.0077501779
0.0077483469
0.0077464218
0.0077444276
0.0077422922
0.0077398165
0.0077387307
0.0077329435
0.0077252583
0.0077223134
0.0077186864
0.0077198319
0.0076739103
0.0076755277
0.0076712594
0.0076649881
0.0076547067
0.007652343
0.0076495124
0.0076474184
0.0076457269
0.0076440241
0.0076423784
0.0076408127
0.0076392991
0.0076379042
0.0076366239
0.0076354726
0.0076344724
0.007633654
0.0076333232
0.0076339203
0.0076371032
0.0077749031
0.0077747667
0.0077749089
0.0077749172
0.0077753516
0.0077758618
0.007776643
0.0077776476
0.0077788527
0.0077804628
0.0077830728
0.007776477
0.0077697822
0.007773178
0.0077713541
0.0077721317
0.0077716712
0.0077716753
0.0077713357
0.0077709044
0.0077704303
0.0077699315
0.007769419
0.0077688911
0.0077683437
0.0077677726
0.0077671743
0.0077665447
0.0077658801
0.0077651763
0.0077644293
0.0077636344
0.0077627868
0.0077618807
0.0077609095
0.0077598657
0.0077587405
0.0077575242
0.0077562052
0.0077547763
0.0077532367
0.0077515349
0.0077498653
0.0077480706
0.0077462206
0.0077451782
0.0077432706
0.007743902
0.0076540195
0.0076518884
0.0076449157
0.0076443852
0.0076431843
0.0076417162
0.0076402887
0.0076389478
0.0076375807
0.0076363452
0.0076352194
0.0076342196
0.0076333664
0.0076326517
0.0076320234
0.0076322729
0.0076335204
0.0076359064
0.0077741928
0.0077737499
0.0077740337
0.0077744269
0.0077748252
0.0077755483
0.0077764407
0.0077773515
0.0077782421
0.0077796765
0.0077813706
0.0077765575
0.0077695285
0.0077728255
0.00777085
0.0077718882
0.007771057
0.0077711721
0.0077711728
0.007771166
0.0077709287
0.0077705899
0.007770192
0.0077697552
0.0077692905
0.0077688017
0.0077682896
0.0077677539
0.0077671936
0.007766607
0.007765992
0.0077653461
0.0077646667
0.0077639501
0.0077631921
0.0077623872
0.0077615285
0.0077606073
0.0077596129
0.0077585317
0.0077573468
0.0077560498
0.0077546438
0.0077529278
0.0077514806
0.0077497679
0.0077483903
0.0077468659
0.0077444705
0.0076386921
0.0076399495
0.0076403875
0.0076393625
0.007638127
0.0076370265
0.0076357462
0.0076346614
0.0076336792
0.0076328293
0.0076321344
0.0076316152
0.0076312245
0.0076310939
0.0076322205
0.007632864
0.0076350411
0.0077732547
0.0077734323
0.007773525
0.0077742357
0.0077751485
0.0077759199
0.0077765063
0.0077769775
0.0077781141
0.007772176
0.0077697086
0.0077763446
0.0077766941
0.0077699821
0.0077685641
0.0077677953
0.0077676754
0.0077717936
0.0077698916
0.0077713487
0.0077704743
0.0077708264
0.0077708377
0.0077709605
0.0077709389
0.007770858
0.007770646
0.0077703548
0.0077700059
0.0077696138
0.0077691883
0.0077687353
0.007768258
0.0077677586
0.007767238
0.0077666963
0.0077661333
0.0077655484
0.00776494
0.0077643062
0.0077636435
0.007762947
0.00776221
0.0077614229
0.0077605726
0.0077596418
0.0077586095
0.0077574725
0.0077562249
0.0077542931
0.0077538734
0.0077513821
0.0077522636
0.0076354905
0.0076378766
0.0076372037
0.0076359244
0.0076351056
0.0076337823
0.0076328512
0.0076319975
0.007631282
0.0076307225
0.0076303403
0.0076301474
0.0076301879
0.0076307704
0.0076312
0.0076306796
0.0077728143
0.0077723243
0.0077730892
0.0077740269
0.0077746655
0.00777529
0.007775631
0.0077757628
0.0077748258
0.007773311
0.0077748601
0.0077707055
0.0077694782
0.007769616
0.0077696833
0.0077697353
0.0077700011
0.0077701741
0.0077702577
0.00777026
0.0077703505
0.0077703841
0.0077703576
0.0077702804
0.0077701519
0.0077699663
0.0077697157
0.0077694106
0.0077690625
0.0077690616
0.0077689814
0.0077688444
0.0077686656
0.0077684166
0.0077678275
0.0077673013
0.0077702763
0.0077683477
0.007768302
0.0077681757
0.0077685477
0.007770215
0.0077695895
0.0077702324
0.0077703688
0.0077706785
0.0077707436
0.0077707929
0.0077707479
0.0077706414
0.0077704466
0.0077701844
0.0077698681
0.0077695087
0.0077691151
0.0077686936
0.007768249
0.0077677847
0.0077673034
0.0077668069
0.0077662969
0.0077657742
0.0077652393
0.0077646918
0.0077641297
0.0077635493
0.0077629442
0.0077623043
0.0077616144
0.0077608531
0.0077599983
0.0077590288
0.0077578043
0.0077556258
0.007755022
0.0077521015
0.0076360181
0.0076357638
0.0076335856
0.0076333512
0.007631675
0.0076309075
0.0076301627
0.0076295667
0.0076291222
0.0076288383
0.0076287341
0.0076288456
0.0076293165
0.0076301599
0.0076305274
0.0076316301
0.0077705077
0.0077723386
0.0077729655
0.0077735768
0.0077741947
0.0077744356
0.0077743473
0.0077734553
0.0077726755
0.0077721584
0.007770416
0.007770044
0.0077698356
0.0077695991
0.0077693227
0.0077693051
0.0077692821
0.0077692221
0.0077690631
0.0077690019
0.0077689352
0.007768837
0.0077687067
0.0077685402
0.0077683341
0.0077680881
0.007767796
0.0077674463
0.0077673775
0.0077673005
0.0077672215
0.0077671584
0.0077671347
0.0077670965
0.0077674808
0.0077690427
0.0077679865
0.0077680959
0.0077681885
0.0077685152
0.0077693696
0.0077697164
0.0077702262
0.0077704206
0.0077706094
0.0077706667
0.0077706804
0.0077706234
0.007770505
0.0077703172
0.0077700708
0.0077697751
0.0077694391
0.0077690705
0.0077686757
0.0077682602
0.0077678284
0.0077673843
0.0077669316
0.0077664734
0.0077660128
0.0077655522
0.0077650932
0.0077646361
0.0077641793
0.0077637177
0.0077632423
0.0077627388
0.0077621847
0.0077615907
0.0077608597
0.007759473
0.0077600467
0.0076362858
0.0076328463
0.0076315157
0.0076295157
0.0076288956
0.007628195
0.0076276985
0.0076273543
0.0076271557
0.0076271018
0.007627198
0.0076274618
0.0076278274
0.0076280804
0.0076284704
0.0076289961
0.0077703603
0.0077689413
0.0077728946
0.0077733772
0.0077736053
0.0077735052
0.0077729623
0.0077723174
0.0077715984
0.0077706012
0.0077701284
0.0077697791
0.0077694866
0.0077692214
0.0077690845
0.0077689704
0.0077688589
0.0077687162
0.0077686178
0.0077685212
0.0077684109
0.0077682833
0.007768135
0.0077679654
0.0077677783
0.0077675769
0.0077673722
0.0077672909
0.0077672283
0.0077671859
0.0077671721
0.0077672029
0.0077672747
0.0077675816
0.0077683768
0.0077685339
0.007768798
0.0077689926
0.0077692835
0.0077697649
0.0077700335
0.0077703309
0.0077704868
0.0077706095
0.0077706513
0.0077706393
0.0077705656
0.0077704348
0.0077702461
0.0077700065
0.0077697229
0.0077694026
0.0077690525
0.007768679
0.0077682878
0.0077678845
0.0077674741
0.0077670619
0.0077666528
0.0077662519
0.0077658643
0.0077654941
0.0077651449
0.0077648181
0.0077645126
0.0077642221
0.0077639226
0.0077635896
0.0077633829
0.0077623927
0.007763753
0.0076286642
0.0076267239
0.0076263892
0.0076259645
0.0076256483
0.007625426
0.0076253314
0.0076253492
0.0076254714
0.0076256957
0.0076259714
0.0076261733
0.007626474
0.0076265033
0.0077714654
0.0077734074
0.0077731445
0.0077729381
0.0077726694
0.0077722425
0.0077716777
0.0077709898
0.0077705153
0.0077701516
0.007769859
0.0077696172
0.0077694541
0.007769327
0.0077692197
0.0077691151
0.007769035
0.0077689606
0.0077688823
0.0077687953
0.0077686968
0.0077685867
0.0077684689
0.0077683493
0.00776824
0.0077681903
0.0077681654
0.0077681646
0.0077681924
0.0077682585
0.0077683687
0.0077685946
0.0077689944
0.0077691574
0.0077693495
0.0077695374
0.007769773
0.0077700763
0.0077702845
0.007770484
0.0077706065
0.0077706834
0.0077706974
0.0077706583
0.0077705648
0.0077704199
0.0077702253
0.0077699858
0.0077697073
0.0077693959
0.007769058
0.0077686999
0.0077683277
0.0077679476
0.0077675658
0.007767189
0.007766824
0.0077664782
0.0077661595
0.0077658755
0.0077656337
0.0077654405
0.0077653025
0.0077652038
0.0077650929
0.0077651432
0.0077659008
0.0077678504
0.0076229277
0.0076240987
0.0076235755
0.0076234857
0.0076233669
0.0076233887
0.0076234992
0.0076236692
0.0076238919
0.0076241434
0.0076243442
0.0076245826
0.0076246866
0.0077730989
0.007773964
0.0077725108
0.0077723612
0.0077721955
0.0077717184
0.0077711993
0.0077707452
0.0077703633
0.0077700549
0.007769815
0.0077696418
0.0077695111
0.0077694095
0.0077693255
0.0077692628
0.0077692105
0.007769161
0.0077691097
0.0077690535
0.0077689921
0.0077689282
0.0077688668
0.0077688168
0.0077688006
0.0077688066
0.0077688349
0.0077688885
0.0077689733
0.0077690945
0.0077692783
0.0077695311
0.0077696902
0.0077698595
0.0077700279
0.0077702123
0.0077704156
0.007770572
0.0077707042
0.0077707827
0.0077708161
0.0077707975
0.0077707304
0.0077706152
0.0077704538
0.0077702486
0.0077700039
0.0077697244
0.0077694157
0.0077690839
0.007768735
0.0077683755
0.0077680123
0.0077676525
0.007767304
0.0077669758
0.0077666775
0.0077664201
0.0077662154
0.0077660751
0.0077660134
0.0077660348
0.007766057
0.0077661139
0.0077672424
0.0077675381
0.0077719396
0.0076184298
0.0076214487
0.0076207245
0.0076213025
0.0076212536
0.0076213758
0.0076215959
0.0076218363
0.0076220871
0.0076223358
0.0076225403
0.0076227408
0.0076228653
0.0077733
0.0077727704
0.0077724497
0.0077725211
0.0077718808
0.0077713196
0.0077708711
0.0077705007
0.0077701965
0.0077699537
0.0077697803
0.0077696584
0.0077695727
0.007769513
0.0077694757
0.0077694527
0.0077694372
0.0077694241
0.0077694108
0.0077693964
0.007769382
0.0077693714
0.0077693702
0.0077693886
0.0077694236
0.0077694757
0.0077695467
0.0077696398
0.0077697571
0.0077699076
0.0077700881
0.0077702339
0.0077703782
0.0077705168
0.0077706548
0.0077707903
0.0077708945
0.0077709707
0.0077710048
0.0077709976
0.0077709458
0.0077708501
0.0077707111
0.0077705307
0.0077703112
0.0077700562
0.0077697703
0.0077694585
0.0077691265
0.0077687804
0.0077684269
0.0077680731
0.0077677273
0.0077673985
0.0077670972
0.007766836
0.0077666294
0.0077664949
0.0077664544
0.0077665424
0.0077667756
0.007767144
0.0077684345
0.0077697748
0.0077742879
0.0076192597
0.0076187025
0.0076188227
0.0076190498
0.0076193224
0.0076196658
0.0076200037
0.0076203146
0.0076205883
0.0076208079
0.0076209978
0.0076211227
0.0077700424
0.0077730729
0.0077723397
0.0077721635
0.007771456
0.007770972
0.0077705825
0.0077702696
0.0077700378
0.0077698806
0.0077697782
0.0077697181
0.0077696897
0.0077696861
0.0077696994
0.007769723
0.0077697522
0.0077697835
0.0077698151
0.0077698475
0.0077698823
0.0077699227
0.0077699736
0.0077700347
0.0077701067
0.0077701906
0.0077702878
0.0077703987
0.0077705253
0.0077706631
0.007770785
0.0077709003
0.0077710062
0.0077711032
0.0077711876
0.0077712454
0.0077712746
0.0077712675
0.0077712225
0.0077711375
0.0077710124
0.0077708481
0.0077706461
0.0077704087
0.0077701393
0.0077698419
0.0077695213
0.007769183
0.007768833
0.007768478
0.0077681256
0.0077677843
0.0077674643
0.0077671775
0.0077669381
0.0077667638
0.0077666761
0.0077667046
0.0077668952
0.0077672432
0.0077677712
0.0077695813
0.0077706634
0.0076122204
0.0076148556
0.0076158706
0.0076170011
0.0076176642
0.0076181651
0.0076185766
0.0076189044
0.0076191519
0.0076193447
0.0076194763
0.0077704612
0.0077684968
0.0077725818
0.0077713884
0.0077709001
0.0077706026
0.0077702979
0.0077700618
0.0077699273
0.007769857
0.0077698312
0.0077698413
0.0077698783
0.0077699342
0.0077700023
0.007770077
0.0077701544
0.0077702321
0.0077703093
0.0077703862
0.0077704644
0.0077705463
0.0077706322
0.0077707222
0.0077708172
0.0077709176
0.007771023
0.0077711328
0.0077712433
0.0077713419
0.00777143
0.0077715052
0.0077715658
0.0077716082
0.007771625
0.0077716129
0.0077715674
0.0077714864
0.0077713685
0.0077712136
0.0077710224
0.0077707964
0.0077705379
0.0077702499
0.0077699362
0.0077696015
0.0077692509
0.0077688902
0.007768526
0.0077681661
0.0077678192
0.0077674958
0.0077672084
0.0077669729
0.0077668087
0.0077667403
0.0077668076
0.0077670607
0.0077674474
0.0077682625
0.0077705197
0.0077738083
0.0076134158
0.0076137725
0.0076151979
0.0076159474
0.0076164672
0.007616938
0.0076173109
0.0076175827
0.0076177702
0.0076178768
0.0077691971
0.0077717821
0.0077706888
0.0077704325
0.0077702331
0.0077700089
0.0077699105
0.0077698874
0.0077699067
0.0077699638
0.0077700499
0.0077701558
0.0077702738
0.0077703982
0.0077705245
0.0077706493
0.0077707709
0.0077708887
0.0077710032
0.0077711151
0.0077712246
0.0077713322
0.007771438
0.0077715419
0.0077716432
0.0077717408
0.0077718315
0.0077719092
0.0077719726
0.0077720194
0.0077720473
0.0077720535
0.0077720333
0.0077719839
0.0077719023
0.0077717867
0.0077716362
0.0077714508
0.0077712312
0.0077709789
0.0077706961
0.0077703857
0.0077700514
0.0077696973
0.0077693284
0.0077689502
0.0077685692
0.0077681927
0.0077678294
0.0077674896
0.007767186
0.0077669346
0.0077667568
0.007766682
0.0077667692
0.0077670808
0.0077676177
0.0077700188
0.0077731094
0.0077816979
0.007605661
0.0076104723
0.0076122123
0.0076141174
0.0076148075
0.0076153589
0.007615802
0.0076161096
0.0076163038
0.0076163978
0.007768971
0.0077714295
0.0077702614
0.0077700454
0.0077698662
0.0077698303
0.0077698702
0.0077699443
0.0077700556
0.0077701978
0.0077703611
0.0077705365
0.0077707163
0.007770895
0.007771069
0.007771236
0.0077713947
0.0077715446
0.0077716861
0.0077718193
0.0077719442
0.0077720608
0.0077721689
0.0077722678
0.0077723562
0.0077724317
0.0077724909
0.0077725319
0.0077725526
0.007772551
0.0077725246
0.0077724706
0.0077723866
0.0077722706
0.0077721214
0.0077719383
0.0077717217
0.0077714722
0.0077711915
0.0077708816
0.0077705453
0.0077701859
0.0077698076
0.0077694147
0.0077690126
0.0077686071
0.0077682052
0.0077678148
0.0077674451
0.0077671074
0.0077668153
0.0077665855
0.0077664383
0.0077664164
0.0077665271
0.0077665727
0.0077681926
0.0077693726
0.0076111921
0.0076109596
0.0076127142
0.0076134713
0.0076139624
0.0076144309
0.0076147627
0.0076149661
0.0076150522
0.0077681552
0.0077709423
0.0077697737
0.0077695035
0.0077696494
0.0077697972
0.0077699405
0.0077701148
0.0077703222
0.0077705508
0.0077707905
0.0077710321
0.0077712688
0.0077714952
0.007771709
0.007771909
0.0077720945
0.0077722656
0.0077724222
0.0077725645
0.0077726923
0.0077728055
0.0077729033
0.0077729847
0.0077730479
0.0077730907
0.0077731114
0.0077731082
0.0077730795
0.0077730233
0.0077729377
0.0077728209
0.0077726718
0.0077724895
0.0077722738
0.0077720251
0.0077717443
0.0077714329
0.0077710931
0.0077707275
0.0077703392
0.007769932
0.0077695099
0.0077690778
0.007768641
0.0077682056
0.0077677784
0.0077673672
0.0077669813
0.0077666316
0.0077663295
0.0077660878
0.0077659399
0.007765882
0.0077656536
0.0077669854
0.0077689541
0.0076017509
0.0076073333
0.007610051
0.0076120505
0.007612615
0.0076131435
0.0076135228
0.0076137481
0.0076138405
0.0077673499
0.0077704565
0.0077688215
0.0077692256
0.0077696826
0.0077699104
0.0077701465
0.0077704263
0.0077707276
0.0077710393
0.0077713493
0.0077716492
0.007771932
0.0077721951
0.0077724375
0.0077726589
0.0077728595
0.0077730396
0.0077731993
0.0077733387
0.0077734576
0.0077735555
0.0077736315
0.0077736844
0.0077737126
0.0077737147
0.0077736894
0.0077736354
0.0077735513
0.0077734356
0.0077732875
0.007773106
0.0077728908
0.007772642
0.0077723602
0.0077720466
0.0077717025
0.0077713303
0.0077709322
0.0077705113
0.0077700709
0.0077696148
0.0077691473
0.0077686731
0.0077681971
0.0077677252
0.0077672635
0.0077668187
0.0077663985
0.0077660105
0.0077656607
0.0077653754
0.0077651477
0.0077646915
0.0077657425
0.0077679772
0.0076102116
0.0076093198
0.0076110528
0.0076115424
0.0076120436
0.0076124348
0.0076126698
0.0076127664
0.0077667984
0.0077687908
0.0077689095
0.0077698844
0.0077700532
0.0077702123
0.007770534
0.0077709033
0.007771289
0.0077716727
0.0077720425
0.0077723856
0.0077727003
0.0077729861
0.0077732437
0.0077734738
0.0077736773
0.0077738545
0.0077740058
0.007774131
0.0077742298
0.0077743016
0.0077743455
0.0077743605
0.0077743454
0.0077742994
0.0077742214
0.0077741106
0.007773966
0.0077737871
0.0077735736
0.0077733254
0.0077730429
0.0077727271
0.0077723789
0.0077720002
0.0077715929
0.0077711594
0.0077707025
0.0077702252
0.007769731
0.0077692234
0.0077687065
0.0077681844
0.0077676615
0.0077671421
0.0077666308
0.0077661319
0.0077656482
0.0077651794
0.0077647414
0.0077643121
0.0077635615
0.0077641263
0.0077661279
0.0076072754
0.0076070642
0.007609418
0.0076104331
0.0076110213
0.0076114594
0.0076117183
0.0076118187
0.0077642559
0.0077694988
0.007768851
0.0077700933
0.0077701828
0.0077705799
0.0077710572
0.0077715344
0.0077720027
0.0077724529
0.0077728626
0.0077732318
0.007773562
0.0077738557
0.0077741149
0.0077743413
0.0077745359
0.007774699
0.0077748308
0.0077749312
0.0077749996
0.0077750356
0.0077750384
0.0077750072
0.0077749414
0.0077748403
0.0077747035
0.0077745306
0.0077743212
0.0077740756
0.007773794
0.0077734771
0.0077731259
0.0077727417
0.0077723263
0.0077718816
0.00777141
0.007770914
0.0077703964
0.0077698603
0.0077693088
0.0077687451
0.0077681725
0.0077675942
0.0077670129
0.007766431
0.00776585
0.0077652696
0.0077646847
0.0077641045
0.0077635012
0.0077625629
0.0077628546
0.0077643289
0.007596693
0.0076036803
0.0076070529
0.0076095341
0.0076102157
0.007610647
0.0076109155
0.007611005
0.0077643768
0.0077634329
0.0077702353
0.0077700086
0.0077705126
0.0077712347
0.0077718452
0.0077723875
0.0077729121
0.0077733816
0.0077738016
0.007774174
0.007774502
0.007774789
0.0077750375
0.0077752488
0.0077754236
0.0077755622
0.0077756645
0.0077757302
0.007775759
0.0077757502
0.0077757035
0.0077756185
0.0077754949
0.0077753325
0.0077751313
0.0077748915
0.0077746135
0.0077742978
0.0077739454
0.0077735575
0.0077731357
0.0077726815
0.0077721972
0.0077716848
0.0077711469
0.0077705861
0.007770005
0.0077694063
0.0077687927
0.0077681666
0.0077675301
0.0077668848
0.0077662309
0.0077655677
0.0077648909
0.0077641905
0.0077634627
0.0077626622
0.0077614977
0.0077612485
0.0077615649
0.0076067895
0.0076074256
0.0076093358
0.0076099408
0.007610114
0.0076102967
0.0076103344
0.0077642063
0.0077705616
0.0077703164
0.0077712086
0.0077721278
0.0077727958
0.0077734192
0.0077739504
0.0077744185
0.0077748297
0.0077751892
0.0077755019
0.0077757711
0.0077759984
0.0077761846
0.0077763301
0.0077764346
0.0077764979
0.0077765198
0.0077764999
0.007776438
0.0077763341
0.0077761881
0.0077760002
0.0077757707
0.0077755
0.0077751888
0.0077748381
0.0077744491
0.0077740231
0.0077735617
0.0077730668
0.0077725406
0.0077719851
0.0077714028
0.007770796
0.0077701672
0.0077695188
0.0077688529
0.0077681714
0.0077674754
0.0077667657
0.0077660416
0.0077653007
0.0077645378
0.0077637417
0.0077629031
0.007761992
0.0077608137
0.007760158
0.007759826
0.0077676448
0.0075952011
0.0076034984
0.0076075829
0.0076096229
0.0076096469
0.0076097659
0.007609762
0.0077659109
0.0077713587
0.0077714001
0.0077724619
0.0077732677
0.0077740155
0.0077745945
0.0077750983
0.0077755393
0.0077759243
0.0077762592
0.007776547
0.0077767893
0.0077769867
0.0077771389
0.0077772458
0.007777307
0.0077773223
0.0077772915
0.0077772146
0.0077770918
0.0077769232
0.0077767094
0.007776451
0.0077761487
0.0077758036
0.0077754167
0.0077749896
0.0077745238
0.0077740211
0.0077734835
0.0077729131
0.0077723122
0.007771683
0.007771028
0.0077703493
0.0077696491
0.0077689291
0.0077681909
0.0077674353
0.0077666622
0.0077658704
0.0077650571
0.0077642169
0.0077633392
0.0077624123
0.0077614287
0.0077602205
0.0077587176
0.0077598664
0.0077604786
0.0076091957
0.0076091973
0.0076100989
0.0076095559
0.007609434
0.0076093148
0.0077653681
0.0077720972
0.0077727421
0.0077736868
0.0077746667
0.0077753053
0.0077758425
0.0077763065
0.0077767109
0.0077770643
0.0077773691
0.0077776257
0.0077778339
0.0077779932
0.0077781027
0.007778162
0.0077781708
0.0077781291
0.0077780371
0.007777895
0.0077777035
0.0077774632
0.0077771751
0.0077768403
0.0077764599
0.0077760355
0.0077755687
0.0077750614
0.0077745154
0.0077739329
0.0077733162
0.0077726675
0.0077719892
0.0077712837
0.007770553
0.0077697992
0.0077690239
0.0077682283
0.0077674131
0.0077665782
0.007765722
0.007764842
0.0077639337
0.0077629885
0.0077619945
0.0077609467
0.0077597737
0.0077582673
0.0077576185
0.0077565581
0.0077628202
0.0076087269
0.0076088072
0.0076097811
0.0076092139
0.0076090466
0.0076088888
0.0077661776
0.0077745828
0.0077749648
0.0077757872
0.0077762147
0.0077766895
0.0077771429
0.0077775527
0.0077779193
0.0077782395
0.0077785106
0.0077787303
0.007778897
0.0077790097
0.0077790673
0.0077790698
0.0077790171
0.0077789095
0.0077787477
0.0077785324
0.0077782648
0.0077779459
0.0077775772
0.0077771602
0.0077766967
0.0077761884
0.0077756374
0.007775046
0.0077744165
0.0077737511
0.0077730524
0.0077723228
0.0077715646
0.00777078
0.007769971
0.0077691392
0.0077682858
0.0077674114
0.0077665159
0.0077655984
0.0077646567
0.007763688
0.0077626875
0.0077616481
0.0077605677
0.0077594399
0.0077581326
0.0077567836
0.0077578793
0.0077579201
0.0076070698
0.0076079657
0.0076091975
0.0076087697
0.0076086465
0.0076084972
0.0077737366
0.0077740874
0.0077767166
0.0077771382
0.0077775591
0.0077780175
0.0077784393
0.0077788215
0.0077791591
0.0077794464
0.0077796793
0.0077798549
0.0077799714
0.0077800278
0.0077800238
0.0077799597
0.007779836
0.0077796536
0.0077794136
0.0077791174
0.0077787665
0.0077783624
0.007777907
0.0077774024
0.0077768506
0.0077762539
0.0077756149
0.0077749358
0.0077742195
0.0077734683
0.0077726851
0.0077718721
0.0077710317
0.0077701659
0.0077692764
0.0077683646
0.0077674312
0.0077664763
0.0077654995
0.0077644993
0.0077634741
0.0077624217
0.0077613393
0.0077602267
0.0077590883
0.0077579001
0.0077566551
0.007755818
0.0077545746
0.0077630041
0.0076053907
0.0076067955
0.0076085179
0.0076083523
0.0076082927
0.0076081715
0.0077719454
0.0077765781
0.0077770329
0.0077780845
0.0077784806
0.0077789157
0.0077793603
0.0077797667
0.0077801275
0.0077804359
0.0077806851
0.0077808714
0.0077809928
0.0077810483
0.0077810378
0.0077809617
0.0077808211
0.007780617
0.007780351
0.0077800248
0.00777964
0.0077791987
0.007778703
0.0077781552
0.0077775576
0.0077769128
0.0077762236
0.0077754925
0.0077747225
0.0077739165
0.0077730771
0.0077722071
0.0077713088
0.0077703846
0.0077694363
0.0077684654
0.0077674728
0.0077664591
0.0077654241
0.0077643671
0.0077632873
0.0077621841
0.0077610573
0.0077599079
0.0077587401
0.0077575567
0.0077563945
0.0077554271
0.0077544065
0.0077532228
0.0077559876
0.007601407
0.0076058579
0.007608279
0.0076083204
0.0076081045
0.0076079614
0.0077728766
0.0077783994
0.0077790985
0.0077794964
0.007779828
0.0077802974
0.0077807485
0.0077811448
0.0077814819
0.0077817523
0.0077819521
0.0077820796
0.0077821345
0.007782117
0.0077820282
0.0077818694
0.0077816423
0.0077813486
0.0077809905
0.00778057
0.0077800894
0.0077795511
0.0077789577
0.0077783118
0.0077776162
0.007776874
0.0077760881
0.0077752618
0.007774398
0.0077734999
0.0077725704
0.0077716121
0.0077706277
0.007769619
0.007768588
0.0077675358
0.0077664634
0.0077653707
0.0077642577
0.0077631239
0.0077619689
0.0077607935
0.0077595991
0.0077583877
0.0077571577
0.0077559224
0.0077547148
0.0077533418
0.0077525654
0.0077508595
0.0077550302
0.0075815941
0.0075973247
0.0076047956
0.0076078589
0.0076078583
0.0076077958
0.0077764481
0.0077781683
0.0077805153
0.0077808381
0.0077812965
0.0077817971
0.0077822308
0.0077825975
0.0077828905
0.0077831049
0.0077832389
0.0077832928
0.0077832674
0.0077831645
0.007782986
0.0077827339
0.0077824107
0.0077820185
0.00778156
0.0077810377
0.0077804543
0.0077798126
0.0077791155
0.0077783662
0.007777568
0.0077767243
0.0077758384
0.0077749139
0.0077739542
0.0077729625
0.0077719419
0.0077708951
0.0077698244
0.0077687319
0.0077676195
0.007766488
0.0077653378
0.0077641688
0.0077629808
0.0077617737
0.0077605479
0.0077593049
0.0077580467
0.0077567729
0.0077554876
0.0077542054
0.0077527596
0.0077512526
0.0077517429
0.0077497001
0.0076068813
0.0076089145
0.0076096273
0.0076085394
0.0076080388
0.0077748691
0.007779821
0.007780388
0.0077816874
0.0077822886
0.0077828653
0.0077833692
0.0077837829
0.0077841055
0.0077843369
0.0077844778
0.0077845299
0.0077844952
0.0077843764
0.007784176
0.0077838968
0.0077835415
0.0077831129
0.0077826138
0.0077820471
0.0077814157
0.0077807227
0.0077799714
0.0077791651
0.0077783076
0.0077774025
0.0077764537
0.0077754651
0.0077744406
0.0077733837
0.007772298
0.0077711864
0.0077700516
0.0077688962
0.0077677224
0.0077665315
0.0077653238
0.0077640992
0.0077628569
0.0077615968
0.0077603185
0.007759022
0.0077577086
0.0077563788
0.0077550341
0.0077536823
0.007752251
0.0077506839
0.0077494919
0.0077480912
0.0077550387
0.0076080511
0.0076100829
0.0076104203
0.0076089715
0.0076082281
0.0077745583
0.0077809648
0.0077825483
0.0077834222
0.0077840403
0.0077846019
0.0077850639
0.0077854141
0.0077856602
0.0077858058
0.0077858536
0.0077858071
0.0077856697
0.0077854448
0.0077851357
0.0077847456
0.0077842777
0.0077837352
0.0077831211
0.0077824386
0.0077816911
0.0077808821
0.0077800153
0.0077790947
0.0077781244
0.0077771088
0.0077760523
0.0077749593
0.007773834
0.0077726801
0.0077715013
0.0077702999
0.0077690792
0.0077678429
0.0077665922
0.0077653271
0.007764047
0.0077627509
0.0077614383
0.0077601076
0.0077587579
0.0077573893
0.0077560043
0.0077546026
0.0077531858
0.0077517396
0.007750277
0.0077489368
0.0077474088
0.0077458846
0.0077470757
0.0076078251
0.007610383
0.0076107586
0.0076092038
0.007608335
0.0077778675
0.0077813546
0.0077845506
0.0077853682