/*--------------------------------*- C++ -*----------------------------------*\
| =========                 |                                                 |
| \\      /  F ield         | OpenFOAM: The Open Source CFD Toolbox           |
|  \\    /   O peration     | Version:  2412                                  |
|   \\  /    A nd           | Website:  www.openfoam.com                      |
|    \\/     M anipulation  |                                                 |
\*---------------------------------------------------------------------------*/
FoamFile
{
    version     2.0;
    format      ascii;
    arch        "LSB;label=32;scalar=64";
    class       surfaceScalarField;
    location    "15174";
    object      phi;
}
// * * * * * * * * * * * * * * * * * * * * * * * * * * * * * * * * * * * * * //

dimensions      [0 3 -1 0 0 0 0];

oriented        oriented;

internalField   nonuniform List<scalar> 
111770
(
-2.431562e-26
2.8720826e-26
-2.1301192e-26
3.3544894e-26
-2.0547845e-26
3.6092383e-26
-2.0789164e-26
3.6598361e-26
-2.1451357e-26
3.594144e-26
-2.2274154e-26
3.4399387e-26
-2.3113819e-26
3.1731367e-26
-2.387934e-26
2.8006514e-26
-2.4506729e-26
2.2990363e-26
-2.4811169e-26
1.6832885e-26
7.956391e-27
1.5435562e-24
-8.5881435e-25
1.2722623e-24
-8.7762787e-25
1.3305277e-24
-8.8599563e-25
1.3742784e-24
-8.7304747e-25
1.4061156e-24
-8.5511884e-25
1.4314709e-24
-8.4173957e-25
1.4542028e-24
-8.3408064e-25
1.4761022e-24
-8.3030335e-25
1.4977853e-24
-8.2868344e-25
1.519433e-24
-8.2833752e-25
1.5410898e-24
-8.289552e-25
1.5627785e-24
-8.3036396e-25
1.5845283e-24
-8.3253098e-25
1.6063638e-24
-8.3527538e-25
1.6283052e-24
-8.3840754e-25
1.6503672e-24
-8.4171344e-25
1.6725547e-24
-8.4484113e-25
1.6948619e-24
-8.4741731e-25
1.7172718e-24
-8.4905612e-25
1.7397555e-24
-8.4925617e-25
1.7622858e-24
-8.4755142e-25
1.7847959e-24
-8.4340288e-25
1.8072346e-24
-8.3631206e-25
1.8295959e-24
-8.2581192e-25
1.8521781e-24
-8.1163803e-25
1.8759932e-24
-7.9393715e-25
1.9029267e-24
-7.7284587e-25
1.9332624e-24
-7.4572902e-25
1.9654702e-24
-7.0973725e-25
1.9897604e-24
-6.5568714e-25
1.9947589e-24
-5.8241433e-25
1.9907681e-24
-5.1480034e-25
2.007067e-24
-4.7448828e-25
2.0662335e-24
-4.5506734e-25
2.1535224e-24
-4.1886957e-25
2.2283512e-24
-3.4020194e-25
2.2631431e-24
-2.340793e-25
2.2745245e-24
-1.4576972e-25
2.2744959e-24
-7.0156805e-26
2.2694256e-24
-2.3438285e-28
2.2617863e-24
6.9706571e-26
2.2517054e-24
1.4388041e-25
2.2363606e-24
2.2676055e-25
2.2061612e-24
3.2595642e-25
2.1404066e-24
4.5209711e-25
2.0553249e-24
5.6566544e-25
1.993976e-24
6.3599006e-25
1.9644124e-24
6.9656704e-25
1.9449878e-24
7.7675415e-25
1.9224261e-24
8.6604217e-25
1.8961312e-24
9.4734663e-25
1.8661782e-24
1.017484e-24
1.8339828e-24
1.0744439e-24
1.8014598e-24
1.1184416e-24
1.769313e-24
1.1521907e-24
1.7372133e-24
1.1782804e-24
1.7049945e-24
1.197867e-24
1.6723739e-24
1.2119758e-24
1.6389995e-24
1.2212106e-24
1.6039661e-24
1.2263976e-24
1.5650357e-24
1.2285302e-24
1.5158096e-24
1.2300815e-24
1.4372173e-24
1.2387885e-24
1.7348212e-24
-1.3229227e-26
-1.8752978e-26
3.9068645e-26
-1.9638933e-26
3.6978338e-26
-2.0025749e-26
3.6985177e-26
-2.0648598e-26
3.6564289e-26
-2.1420902e-26
3.517169e-26
-2.2344253e-26
3.2654719e-26
-2.3262432e-26
2.8924693e-26
-2.4220718e-26
2.3948648e-26
-2.5440298e-26
1.8052465e-26
-2.9912389e-26
1.2428482e-26
7.0916802e-27
1.0778181e-24
-1.4566529e-24
1.2585904e-24
-1.0584002e-24
1.3515535e-24
-9.7895869e-25
1.4013077e-24
-9.2280165e-25
1.4329787e-24
-8.8678984e-25
1.4577979e-24
-8.6655877e-25
1.4803771e-24
-8.5665986e-25
1.5023113e-24
-8.5223753e-25
1.5240531e-24
-8.5042524e-25
1.5457181e-24
-8.5000254e-25
1.5673188e-24
-8.5055592e-25
1.5889151e-24
-8.5196023e-25
1.6105285e-24
-8.541444e-25
1.6321913e-24
-8.5693824e-25
1.653933e-24
-8.6014921e-25
1.6757782e-24
-8.6355862e-25
1.6977411e-24
-8.6680404e-25
1.7198389e-24
-8.6951509e-25
1.7420398e-24
-8.7125701e-25
1.7643704e-24
-8.7158678e-25
1.7867967e-24
-8.6997773e-25
1.8092732e-24
-8.6587934e-25
1.8316599e-24
-8.5869879e-25
1.8539308e-24
-8.4808274e-25
1.8766486e-24
-8.3435591e-25
1.9015027e-24
-8.1879117e-25
1.9315348e-24
-8.0287802e-25
1.9680732e-24
-7.8226733e-25
2.0106579e-24
-7.5232197e-25
2.0432298e-24
-6.8825902e-25
2.0361562e-24
-5.7534077e-25
2.0058947e-24
-4.8453879e-25
1.9995223e-24
-4.681159e-25
2.0678961e-24
-5.2344124e-25
2.1805569e-24
-5.3153038e-25
2.263971e-24
-4.2361608e-25
2.2887999e-24
-2.5890823e-25
2.2919715e-24
-1.489413e-25
2.2881242e-24
-6.6309516e-26
2.2820276e-24
5.8622103e-27
2.2749898e-24
7.6744422e-26
2.2674674e-24
1.5140284e-25
2.2594596e-24
2.3476831e-25
2.245991e-24
3.3942511e-25
2.1731807e-24
5.2490737e-25
2.0615246e-24
6.7732161e-25
1.994316e-24
7.0319863e-25
1.9838969e-24
7.0698614e-25
1.9743591e-24
7.8629199e-25
1.9525058e-24
8.8789543e-25
1.9268392e-24
9.7301327e-25
1.894507e-24
1.0498162e-24
1.8588773e-24
1.1100736e-24
1.8239302e-24
1.1533887e-24
1.7908422e-24
1.1852787e-24
1.7590322e-24
1.2100903e-24
1.7272844e-24
1.2296149e-24
1.6951301e-24
1.24413e-24
1.662099e-24
1.2542417e-24
1.6276696e-24
1.2608269e-24
1.5920668e-24
1.264133e-24
1.5619435e-24
1.2602048e-24
1.5683121e-24
1.2324199e-24
2.1808553e-24
1.122278e-24
9.046117e-25
-2.0522053e-26
3.484886e-26
-1.9412535e-26
3.586882e-26
-1.8618996e-26
3.6191637e-26
-1.8971075e-26
3.6916368e-26
-1.9692464e-26
3.5893079e-26
-2.0446891e-26
3.3409146e-26
-2.1216778e-26
2.969458e-26
-2.1858634e-26
2.4590504e-26
-2.2324993e-26
1.8518824e-26
-2.2289302e-26
1.2392792e-26
-2.1897226e-26
6.6996039e-27
7.6022271e-28
1.8065118e-24
-1.3438512e-24
1.401671e-24
-1.0518121e-24
1.3896881e-24
-1.0464173e-24
1.4084638e-24
-9.9773438e-25
1.4319186e-24
-9.4625645e-25
1.4544739e-24
-9.0934516e-25
1.4763669e-24
-8.8845182e-25
1.4980764e-24
-8.7836935e-25
1.5196902e-24
-8.7385128e-25
1.5411676e-24
-8.7190263e-25
1.5625063e-24
-8.713413e-25
1.5837269e-24
-8.7177646e-25
1.6048534e-24
-8.7308679e-25
1.6259297e-24
-8.7522069e-25
1.6470008e-24
-8.7800934e-25
1.6681113e-24
-8.8125965e-25
1.6893013e-24
-8.847487e-25
1.7106049e-24
-8.8810761e-25
1.7320621e-24
-8.9097233e-25
1.7537222e-24
-8.9291707e-25
1.7756672e-24
-8.9353173e-25
1.7979815e-24
-8.922921e-25
1.8205831e-24
-8.8848087e-25
1.8429095e-24
-8.810252e-25
1.8644135e-24
-8.6958677e-25
1.8860516e-24
-8.5599396e-25
1.9105191e-24
-8.4325872e-25
1.9417782e-24
-8.341371e-25
1.9853671e-24
-8.2585622e-25
2.0481479e-24
-8.1510278e-25
2.1083824e-24
-7.4849351e-25
2.0769559e-24
-5.4391424e-25
1.9887182e-24
-3.9630117e-25
1.9199751e-24
-3.9937276e-25
1.9993602e-24
-6.0282634e-25
2.170424e-24
-7.0259423e-25
2.2621683e-24
-5.1536045e-25
2.2641202e-24
-2.6086007e-25
2.2551044e-24
-1.3992558e-25
2.2468745e-24
-5.8079593e-26
2.2402581e-24
1.2478644e-26
2.2346271e-24
8.2375412e-26
2.2295336e-24
1.5649632e-25
2.2278697e-24
2.3643227e-25
2.2570981e-24
3.1019672e-25
2.1708923e-24
6.1111321e-25
1.9969776e-24
8.5123629e-25
1.9341984e-24
7.6597784e-25
1.9869474e-24
6.5423713e-25
1.9961806e-24
7.770588e-25
1.9692144e-24
9.1486168e-25
1.9488276e-24
9.9339998e-25
1.9119336e-24
1.0867103e-24
1.8695643e-24
1.1524429e-24
1.8306705e-24
1.1922825e-24
1.796983e-24
1.2189662e-24
1.7663383e-24
1.240735e-24
1.7360871e-24
1.259866e-24
1.7048961e-24
1.2753211e-24
1.6723899e-24
1.2867479e-24
1.6369601e-24
1.2962566e-24
1.5942918e-24
1.3068013e-24
1.5342862e-24
1.3202104e-24
1.4323851e-24
1.3343211e-24
1.2157161e-24
1.338947e-24
1.2604988e-24
-1.5401196e-26
-1.734706e-26
3.7814684e-26
-1.5706767e-26
3.4551344e-26
-1.6354298e-26
3.7563899e-26
-1.6907056e-26
3.6445837e-26
-1.7177926e-26
3.3680016e-26
-1.7343158e-26
2.9859811e-26
-1.7231711e-26
2.4479057e-26
-1.6394657e-26
1.768177e-26
-1.4104118e-26
1.0102252e-26
-9.6721079e-27
2.2675942e-27
-5.5127506e-27
1.2296311e-24
-1.2575039e-24
1.9267246e-24
-6.7546633e-25
1.5221383e-24
-9.3926489e-25
1.4840119e-24
-1.0136857e-24
1.4583897e-24
-1.0207951e-24
1.4513894e-24
-9.9073409e-25
1.4581753e-24
-9.5304241e-25
1.4731837e-24
-9.2435347e-25
1.4923258e-24
-9.0759398e-25
1.5130695e-24
-8.99113e-25
1.53419e-24
-8.9497182e-25
1.5552033e-24
-8.9291598e-25
1.5759507e-24
-8.9208866e-25
1.5964552e-24
-8.9228095e-25
1.6167511e-24
-8.9338272e-25
1.6368968e-24
-8.9536636e-25
1.6569562e-24
-8.9806878e-25
1.6769959e-24
-9.0129936e-25
1.6970837e-24
-9.0483643e-25
1.7173005e-24
-9.083245e-25
1.7377534e-24
-9.1142515e-25
1.7586814e-24
-9.1384515e-25
1.7804492e-24
-9.1529946e-25
1.8033794e-24
-9.1522235e-25
1.8270878e-24
-9.1218929e-25
1.849868e-24
-9.0380534e-25
1.8691647e-24
-8.8888345e-25
1.8859931e-24
-8.7282238e-25
1.9053851e-24
-8.6265077e-25
1.9283914e-24
-8.5714335e-25
1.9642574e-24
-8.6172219e-25
2.0519811e-24
-9.0282649e-25
2.1905003e-24
-8.8701278e-25
2.12134e-24
-4.747539e-25
1.954031e-24
-2.2899215e-25
1.7728458e-24
-2.181876e-25
1.7785396e-24
-6.0852013e-25
2.4492524e-24
-1.3733071e-24
2.0853636e-24
2.0686733e-24
2.0601647e-24
2.0547247e-24
2.0515762e-24
2.0499966e-24
2.0470599e-24
2.0324523e-24
2.1067147e-24
2.4787348e-24
1.7673952e-24
1.5625759e-24
1.8175496e-24
7.1582341e-25
2.0094129e-24
4.6237382e-25
2.0256789e-24
7.6079279e-25
1.9636873e-24
9.7685332e-25
1.9690948e-24
9.8799249e-25
1.920312e-24
1.1354931e-24
1.8662355e-24
1.2065194e-24
1.8230218e-24
1.2354962e-24
1.7913193e-24
1.2506687e-24
1.7652786e-24
1.2667757e-24
1.7385116e-24
1.286633e-24
1.7088978e-24
1.3049349e-24
1.677408e-24
1.3182378e-24
1.6436107e-24
1.3300539e-24
1.603974e-24
1.346438e-24
1.550237e-24
1.3739474e-24
1.465072e-24
1.4194861e-24
1.3084593e-24
1.4955596e-24
2.0446181e-24
-1.3307714e-26
-8.2532799e-27
-1.3626449e-26
4.2937068e-26
-1.3578977e-26
3.6398364e-26
-1.2555267e-26
3.2656306e-26
-1.182386e-26
2.9128404e-26
-1.0502062e-26
2.3157259e-26
-8.2520291e-27
1.5431737e-26
-4.0948152e-27
5.9450382e-27
2.7889372e-27
-4.6161582e-27
1.4030853e-26
-1.6754666e-26
-2.8601684e-26
1.0590218e-24
-1.4830015e-24
1.6977287e-24
-8.7058089e-25
1.3352535e-24
-8.9502872e-25
1.5062399e-24
-8.4645265e-25
1.515693e-24
-9.4871804e-25
1.4957471e-24
-9.9373976e-25
1.4760768e-24
-1.0011247e-24
1.4677634e-24
-9.8242073e-25
1.4723799e-24
-9.5765889e-25
1.4862598e-24
-9.3823338e-25
1.5049566e-24
-9.2629085e-25
1.5253964e-24
-9.195528e-25
1.5460581e-24
-9.1563352e-25
1.5663952e-24
-9.1325309e-25
1.5863127e-24
-9.1200616e-25
1.6058054e-24
-9.1177363e-25
1.6249368e-24
-9.1251411e-25
1.6437857e-24
-9.1421527e-25
1.6624394e-24
-9.1672251e-25
1.681008e-24
-9.1986794e-25
1.6995724e-24
-9.2340079e-25
1.7183299e-24
-9.2708202e-25
1.7376239e-24
-9.3071919e-25
1.7580876e-24
-9.3430879e-25
1.7807437e-24
-9.379556e-25
1.8063329e-24
-9.4081156e-25
1.8338235e-24
-9.3967987e-25
1.8588011e-24
-9.2878291e-25
1.8737896e-24
-9.0387204e-25
1.8773209e-24
-8.7635363e-25
1.8868035e-24
-8.7213336e-25
1.8943578e-24
-8.6469771e-25
1.856106e-24
-8.2347037e-25
1.9378082e-24
-9.8452867e-25
2.6828106e-24
-1.6320152e-24
2.0624939e-24
1.9017694e-24
1.6984106e-24
1.3787696e-24
1.3525405e-24
1.7396727e-24
2.0258115e-24
2.5537689e-24
1.8806585e-24
1.6499637e-24
1.9999321e-24
8.6871884e-25
1.9092073e-24
1.2262178e-24
1.8365395e-24
1.2791872e-24
1.7928783e-24
1.2791574e-24
1.7718644e-24
1.2716826e-24
1.7594233e-24
1.2792168e-24
1.7390103e-24
1.307046e-24
1.7119104e-24
1.3320347e-24
1.6802589e-24
1.3498893e-24
1.6498831e-24
1.3604297e-24
1.6219584e-24
1.3743627e-24
1.5996237e-24
1.3962821e-24
1.5964043e-24
1.4227055e-24
1.6584361e-24
1.4335278e-24
2.340473e-24
1.3625811e-24
1.5674388e-24
-8.1390742e-27
-1.018085e-26
3.8440139e-26
-6.8636888e-27
2.9339145e-26
-5.0468637e-27
2.7311579e-26
-2.4005359e-27
2.0510931e-26
1.6909606e-27
1.134024e-26
8.0939224e-27
-4.5792375e-28
1.7717117e-26
-1.4239353e-26
3.0437942e-26
-2.9475491e-26
4.8857085e-26
-4.7020827e-26
-6.188715e-26
9.3061453e-25
-1.6470455e-24
1.6154678e-24
-1.012699e-24
1.1762876e-24
-1.0438213e-24
1.2790543e-24
-9.7334757e-25
1.342854e-24
-9.5882843e-25
1.4389811e-24
-9.4257976e-25
1.4690915e-24
-9.7882843e-25
1.4716709e-24
-9.9631922e-25
1.4674692e-24
-9.96923e-25
1.4688416e-24
-9.8379315e-25
1.4788991e-24
-9.6771632e-25
1.4954376e-24
-9.5477191e-25
1.5150491e-24
-9.4590239e-25
1.5354685e-24
-9.3997219e-25
1.555598e-24
-9.35763e-25
1.5751072e-24
-9.3276223e-25
1.5939411e-24
-9.3084009e-25
1.612145e-24
-9.2997755e-25
1.6298001e-24
-9.3016924e-25
1.6470061e-24
-9.3142124e-25
1.663879e-24
-9.3359541e-25
1.6805537e-24
-9.3654268e-25
1.6972475e-24
-9.4009457e-25
1.7143191e-24
-9.4415364e-25
1.7325425e-24
-9.489426e-25
1.7534434e-24
-9.552096e-25
1.7790979e-24
-9.636101e-25
1.8107946e-24
-9.7250834e-25
1.8463187e-24
-9.7520392e-25
1.8773976e-24
-9.5986182e-25
1.888167e-24
-9.1464141e-25
1.8589051e-24
-8.4709181e-25
1.8598122e-24
-8.7304039e-25
1.890597e-24
-8.9548255e-25
1.6971245e-24
-6.2999784e-25
2.0377649e-24
-1.3251691e-24
1.6499262e-24
2.5456722e-24
1.8375268e-24
1.9343633e-24
1.7545329e-24
1.3621811e-24
1.7281786e-24
1.3055117e-24
1.7387936e-24
1.2610675e-24
1.7590245e-24
1.2589859e-24
1.7469918e-24
1.3190788e-24
1.7173134e-24
1.3617131e-24
1.6848416e-24
1.3823611e-24
1.6525886e-24
1.3926827e-24
1.6296785e-24
1.3972728e-24
1.618926e-24
1.4070346e-24
1.6270264e-24
1.414605e-24
1.6629658e-24
1.3975885e-24
1.7173229e-24
1.308224e-24
2.110785e-24
1.1739767e-24
1.6096754e-24
-5.8461368e-27
2.764675e-27
1.9566084e-27
2.8119645e-26
6.096718e-27
1.6370822e-26
1.2138712e-26
5.2982456e-27
2.1183905e-26
-9.5031164e-27
3.3999765e-26
-2.7055213e-26
5.0848295e-26
-4.6324021e-26
7.1311083e-26
-6.7483615e-26
1.0142162e-25
-9.1997682e-26
-1.1784419e-25
8.6817496e-25
-1.7600287e-24
1.5474305e-24
-1.1560521e-24
1.0859917e-24
-1.1856067e-24
1.1837343e-24
-1.1104416e-24
1.2132008e-24
-1.0732879e-24
1.2753735e-24
-1.0355203e-24
1.3328306e-24
-1.0162856e-24
1.3948895e-24
-1.0046386e-24
1.4278967e-24
-1.0118357e-24
1.4443149e-24
-1.0127374e-24
1.4546048e-24
-1.0072129e-24
1.4669585e-24
-9.9614688e-25
1.4835469e-24
-9.8430474e-25
1.5030786e-24
-9.7430365e-25
1.5236207e-24
-9.6644443e-25
1.5438487e-24
-9.6020024e-25
1.5632558e-24
-9.551701e-25
1.5817218e-24
-9.5122822e-25
1.5992448e-24
-9.4836313e-25
1.615901e-24
-9.4663372e-25
1.6317875e-24
-9.4605571e-25
1.6470249e-24
-9.4665865e-25
1.661758e-24
-9.4832853e-25
1.6762037e-24
-9.5098835e-25
1.6907026e-24
-9.545935e-25
1.7059709e-24
-9.5942193e-25
1.7235353e-24
-9.6650699e-25
1.7460375e-24
-9.7771184e-25
1.7767405e-24
-9.9431308e-25
1.8172448e-24
-1.0130126e-24
1.8640325e-24
-1.0219916e-24
1.9068338e-24
-1.0026632e-24
1.9247726e-24
-9.3258018e-25
1.8155162e-24
-7.3783542e-25
1.7947759e-24
-8.5230007e-25
2.4190751e-24
-1.5197817e-24
1.6402294e-24
2.1533956e-24
1.646564e-24
1.8690127e-24
1.6561098e-24
1.295966e-24
1.7089991e-24
1.2081782e-24
1.7805304e-24
1.1874546e-24
1.774741e-24
1.3248682e-24
1.7358878e-24
1.4005663e-24
1.6902705e-24
1.4279784e-24
1.6540578e-24
1.4288954e-24
1.6261937e-24
1.4251369e-24
1.6110336e-24
1.4221947e-24
1.6039015e-24
1.4217372e-24
1.5904629e-24
1.411027e-24
1.5237832e-24
1.3749037e-24
1.3585046e-24
1.3392554e-24
1.6302803e-24
1.3378997e-24
1.4458485e-24
1.0028171e-26
1.4065067e-26
1.2333925e-26
2.1943027e-26
-2.5797139e-27
3.3668449e-26
-2.1228539e-26
4.9849741e-26
-4.3236505e-26
7.050041e-26
-6.697469e-26
9.6012684e-26
-9.2995889e-26
1.2677828e-25
-1.2276328e-25
1.7006509e-25
-1.6113101e-25
1.9149909e-25
-2.1452721e-25
1.8121839e-25
-2.7976296e-25
-3.0313188e-25
6.3758384e-25
-1.7986765e-24
8.3894349e-25
-1.2015228e-24
9.639585e-25
-1.0113937e-24
1.1262863e-24
-9.5993277e-25
1.5757629e-24
-1.1256218e-24
1.0865687e-24
-1.2708345e-24
1.1562051e-24
-1.2256886e-24
1.1609347e-24
-1.1903363e-24
1.1994782e-24
-1.148985e-24
1.2356142e-24
-1.1094238e-24
1.2814107e-24
-1.0813167e-24
1.3275408e-24
-1.0624156e-24
1.3726511e-24
-1.049749e-24
1.4047874e-24
-1.0439719e-24
1.4285262e-24
-1.0364762e-24
1.448337e-24
-1.0270236e-24
1.4682152e-24
-1.0160251e-24
1.4891506e-24
-1.0052402e-24
1.5104726e-24
-9.9562563e-25
1.5312508e-24
-9.8722261e-25
1.5509867e-24
-9.7993612e-25
1.5694764e-24
-9.7365981e-25
1.5866783e-24
-9.6843014e-25
1.6026809e-24
-9.6436572e-25
1.6175531e-24
-9.6150592e-25
1.6314022e-24
-9.5990486e-25
1.6443652e-24
-9.5962163e-25
1.6566346e-24
-9.6059788e-25
1.6685236e-24
-9.6287742e-25
1.6805696e-24
-9.666395e-25
1.6940008e-24
-9.7285309e-25
1.7111007e-24
-9.8360693e-25
1.7353542e-24
-1.0019653e-24
1.7704898e-24
-1.0294486e-24
1.8176922e-24
-1.060215e-24
1.8721668e-24
-1.0764663e-24
1.9266222e-24
-1.0571185e-24
1.9823632e-24
-9.8832118e-25
1.7362324e-24
-4.9170463e-25
2.0814014e-24
-1.1974691e-24
2.1222648e-24
1.5933172e-24
1.8249136e-24
1.6889745e-24
1.1125209e-24
1.8452993e-24
1.0311298e-24
1.826766e-24
1.3434015e-24
1.7648401e-24
1.4624922e-24
1.7008169e-24
1.4920016e-24
1.6515923e-24
1.47812e-24
1.6199704e-24
1.4567587e-24
1.5964306e-24
1.4457345e-24
1.5767373e-24
1.4414305e-24
1.5383677e-24
1.4493966e-24
1.4353942e-24
1.4778772e-24
1.2278632e-24
1.5467864e-24
8.8931175e-25
1.6764511e-24
2.2336181e-24
2.4137408e-26
3.1036296e-26
-9.4786016e-27
4.5071054e-26
-3.5263297e-26
6.4075999e-26
-6.2241451e-26
8.6928935e-26
-8.9827625e-26
1.1462455e-25
-1.206915e-25
1.4619162e-25
-1.5433035e-25
1.7975255e-25
-1.9469193e-25
2.0806965e-25
-2.4284431e-25
2.2093115e-25
-2.9262446e-25
2.5051343e-25
-3.3271416e-25
3.042712e-25
-3.8715966e-25
3.0674224e-25
-4.8016854e-25
3.1632265e-25
-5.4263903e-25
3.2807159e-25
-5.9330874e-25
3.4630806e-25
-6.3583121e-25
3.6352176e-25
-6.81019e-25
3.8078475e-25
-7.2592166e-25
3.9737442e-25
-7.6935648e-25
4.1700795e-25
-8.0809611e-25
4.4009615e-25
-8.4486763e-25
4.6286485e-25
-8.8420751e-25
4.8625449e-25
-9.2336456e-25
5.1050166e-25
-9.6157429e-25
5.3560225e-25
-9.9846911e-25
5.6138133e-25
-1.0337178e-24
5.87178e-25
-1.0666552e-24
5.9911026e-25
-1.0956359e-24
6.4362932e-25
-1.0871745e-24
6.8066475e-25
-1.0999197e-24
7.1649309e-25
-1.1154859e-24
7.5304588e-25
-1.1295439e-24
7.9152914e-25
-1.1417497e-24
8.3381758e-25
-1.1555565e-24
8.8527505e-25
-1.1849744e-24
1.2691037e-24
-1.2739277e-24
8.198015e-25
-1.3493743e-24
8.8406644e-25
-1.2657878e-24
1.0161898e-24
-1.143517e-24
1.1645332e-24
-1.1082762e-24
1.2145676e-24
-1.1756561e-24
1.1808451e-24
-1.237112e-24
1.1868148e-24
-1.2316582e-24
1.1987169e-24
-1.2022384e-24
1.2221995e-24
-1.1724676e-24
1.2541181e-24
-1.1413425e-24
1.2913428e-24
-1.1185415e-24
1.3297196e-24
-1.1007924e-24
1.3666902e-24
-1.0867196e-24
1.3979462e-24
-1.0752279e-24
1.4250218e-24
-1.0635518e-24
1.4496018e-24
-1.0516036e-24
1.4731767e-24
-1.0396e-24
1.4960354e-24
-1.0280989e-24
1.5178638e-24
-1.017454e-24
1.5383514e-24
-1.0077102e-24
1.557286e-24
-9.9887073e-25
1.574644e-24
-9.9101786e-25
1.5904438e-24
-9.8422997e-25
1.6047448e-24
-9.7866671e-25
1.6176272e-24
-9.743883e-25
1.6292005e-24
-9.7147821e-25
1.6396281e-24
-9.7004919e-25
1.6491374e-24
-9.701072e-25
1.6581706e-24
-9.7191056e-25
1.6676403e-24
-9.7610926e-25
1.6791425e-24
-9.8435529e-25
1.6951479e-24
-9.9961234e-25
1.7187005e-24
-1.0255179e-24
1.7526191e-24
-1.0633672e-24
1.7979001e-24
-1.105496e-24
1.8467951e-24
-1.1253612e-24
1.8850349e-24
-1.0953583e-24
2.4660591e-24
-1.5693454e-24
1.7154369e-24
2.0818096e-24
1.6746501e-24
1.5196804e-24
1.961744e-24
7.4403587e-25
1.8794633e-24
1.4256822e-24
1.7805689e-24
1.5613867e-24
1.6980173e-24
1.5745532e-24
1.6423703e-24
1.533767e-24
1.6080822e-24
1.4910468e-24
1.5872227e-24
1.466594e-24
1.5688669e-24
1.4597863e-24
1.5471821e-24
1.4710815e-24
1.5178638e-24
1.5071954e-24
1.4947228e-24
1.5699275e-24
1.5354988e-24
1.6356751e-24
2.1416313e-24
1.6274855e-24
1.9259249e-24
3.8346965e-26
5.7491719e-26
-5.4408053e-26
7.6862313e-26
-8.1612046e-26
1.0066267e-25
-1.1362798e-25
1.287594e-25
-1.4878823e-25
1.5991227e-25
-1.8548322e-25
1.9119044e-25
-2.2597009e-25
2.1999564e-25
-2.7164952e-25
2.4688274e-25
-3.1951156e-25
2.8145906e-25
-3.6729047e-25
3.1677609e-25
-4.2247669e-25
3.284267e-25
-4.9181915e-25
3.374572e-25
-5.5166953e-25
3.4772225e-25
-6.0357379e-25
3.6208973e-25
-6.5019869e-25
3.7705243e-25
-6.9598169e-25
3.9227039e-25
-7.4113962e-25
4.0788527e-25
-7.8497136e-25
4.262035e-25
-8.2641434e-25
4.4772626e-25
-8.6639039e-25
4.7021185e-25
-9.066931e-25
4.9352785e-25
-9.4668055e-25
5.17692e-25
-9.8573844e-25
5.426634e-25
-1.0234405e-24
5.6811414e-25
-1.0591685e-24
5.9319132e-25
-1.0917324e-24
6.1562357e-25
-1.1180681e-24
6.5831503e-25
-1.129866e-24
7.0340162e-25
-1.1450063e-24
7.4941281e-25
-1.161497e-24
7.9702518e-25
-1.1771562e-24
8.471804e-25
-1.1919049e-24
9.0062213e-25
-1.2089982e-24
9.525355e-25
-1.2368878e-24
9.6457621e-25
-1.2859684e-24
9.3195514e-25
-1.3167533e-24
9.5397118e-25
-1.2878038e-24
1.0382017e-24
-1.2277475e-24
1.1340742e-24
-1.2041487e-24
1.1825653e-24
-1.2241472e-24
1.1899553e-24
-1.2445021e-24
1.1979467e-24
-1.2396497e-24
1.2142422e-24
-1.2185339e-24
1.2373152e-24
-1.1955405e-24
1.267894e-24
-1.1719213e-24
1.3018328e-24
-1.1524803e-24
1.3365779e-24
-1.1355375e-24
1.3701439e-24
-1.1202856e-24
1.4009282e-24
-1.1060122e-24
1.429252e-24
-1.0918757e-24
1.4556373e-24
-1.0779889e-24
1.4804552e-24
-1.0644179e-24
1.5037642e-24
-1.051408e-24
1.5253813e-24
-1.039071e-24
1.5451945e-24
-1.0275234e-24
1.5631552e-24
-1.0168315e-24
1.5792506e-24
-1.0071133e-24
1.5935047e-24
-9.9848404e-25
1.6059616e-24
-9.9112361e-25
1.6166899e-24
-9.8511665e-25
1.6258065e-24
-9.8059478e-25
1.633452e-24
-9.776947e-25
1.6399933e-24
-9.7664852e-25
1.6460413e-24
-9.7795849e-25
1.6528039e-24
-9.8287189e-25
1.6619176e-24
-9.9346902e-25
1.6745064e-24
-1.0122011e-24
1.6898806e-24
-1.0408921e-24
1.7072354e-24
-1.080722e-24
1.7313398e-24
-1.1296004e-24
1.752705e-24
-1.1467265e-24
2.1475148e-24
-1.4901681e-24
1.6995168e-24
2.5155096e-24
1.8631318e-24
2.07806e-24
1.7337636e-24
1.6907549e-24
1.6503157e-24
1.6580011e-24
1.6106729e-24
1.5734097e-24
1.5905326e-24
1.5111872e-24
1.5780044e-24
1.4791222e-24
1.5677126e-24
1.4700781e-24
1.5638633e-24
1.4749308e-24
1.5694502e-24
1.5016085e-24
1.5923038e-24
1.5470738e-24
1.6363892e-24
1.5915898e-24
1.6660972e-24
1.5977775e-24
2.0946491e-24
1.497373e-24
1.9210217e-24
6.9199825e-26
7.9353662e-26
1.1344929e-25
-1.4772361e-25
1.4142876e-25
-1.767677e-25
1.7140054e-25
-2.15455e-25
2.0132825e-25
-2.5589781e-25
2.2983055e-25
-3.0015182e-25
2.577405e-25
-3.4742151e-25
2.8713609e-25
-3.9668606e-25
3.1477994e-25
-4.5012055e-25
3.3154332e-25
-5.0858252e-25
3.4383318e-25
-5.6395939e-25
3.5546474e-25
-6.1520535e-25
3.6857242e-25
-6.6330637e-25
3.8264933e-25
-7.1005861e-25
3.9749628e-25
-7.5598656e-25
4.1341023e-25
-8.0088531e-25
4.3140732e-25
-8.4441144e-25
4.5180044e-25
-8.8678352e-25
4.7374046e-25
-9.2863312e-25
4.968204e-25
-9.697605e-25
5.2092234e-25
-1.0098404e-24
5.4590681e-25
-1.048425e-24
5.7172435e-25
-1.0849861e-24
5.9846827e-25
-1.1184763e-24
6.2748954e-25
-1.1470894e-24
6.6655669e-25
-1.1689331e-24
7.1070284e-25
-1.1891524e-24
7.5756462e-25
-1.2083588e-24
8.064106e-25
-1.2260022e-24
8.5672439e-25
-1.2422187e-24
9.0674634e-25
-1.2590201e-24
9.4976527e-25
-1.2799067e-24
9.6929924e-25
-1.3055024e-24
9.7148593e-25
-1.31894e-24
9.9208658e-25
-1.3084045e-24
1.0459274e-24
-1.2815883e-24
1.1084022e-24
-1.2666236e-24
1.1517207e-24
-1.2674656e-24
1.1756724e-24
-1.2684537e-24
1.1953102e-24
-1.2592875e-24
1.2189489e-24
-1.2421726e-24
1.2466364e-24
-1.2232281e-24
1.2785862e-24
-1.2038711e-24
1.3121674e-24
-1.1860615e-24
1.3457248e-24
-1.1690949e-24
1.3781107e-24
-1.1526715e-24
1.4086248e-24
-1.1365263e-24
1.4372735e-24
-1.1205244e-24
1.4640633e-24
-1.1047787e-24
1.4890282e-24
-1.0893828e-24
1.512075e-24
-1.0744548e-24
1.5331364e-24
-1.0601323e-24
1.5521061e-24
-1.0464931e-24
1.5689811e-24
-1.0337066e-24
1.5837301e-24
-1.0218622e-24
1.5963543e-24
-1.0111083e-24
1.606875e-24
-1.0016444e-24
1.6153383e-24
-9.9357998e-25
1.6218465e-24
-9.8710295e-25
1.6265999e-24
-9.8244811e-25
1.6300409e-24
-9.8008946e-25
1.6331265e-24
-9.8104414e-25
1.6374158e-24
-9.8716122e-25
1.6442194e-24
-1.0002726e-24
1.6518216e-24
-1.0198033e-24
1.6525253e-24
-1.0415959e-24
1.6381836e-24
-1.0663803e-24
1.6339359e-24
-1.1253527e-24
2.1622766e-24
-1.6750672e-24
2.1823696e-24
1.5741238e-24
2.2990007e-24
1.5425075e-24
1.6896175e-24
1.5559951e-24
1.5599221e-24
1.5675658e-24
1.4996165e-24
1.569076e-24
1.477612e-24
1.5689942e-24
1.4701598e-24
1.5711818e-24
1.4727432e-24
1.5898635e-24
1.4829269e-24
1.6258458e-24
1.5110915e-24
1.6717036e-24
1.545732e-24
1.6977476e-24
1.5717334e-24
1.6569101e-24
1.5382106e-24
1.4786586e-24
2.0992732e-24
1.1612563e-25
1.5586615e-25
-2.1650821e-25
1.8344652e-25
-2.4303537e-25
2.1081663e-25
-2.8326791e-25
2.3732553e-25
-3.2666073e-25
2.6266948e-25
-3.7276545e-25
2.8819101e-25
-4.222076e-25
3.1194884e-25
-4.7387837e-25
3.3052794e-25
-5.2716162e-25
3.4576336e-25
-5.7919481e-25
3.5976802e-25
-6.2921001e-25
3.7409135e-25
-6.776297e-25
3.8913012e-25
-7.2509738e-25
4.0508934e-25
-7.7194578e-25
4.2224314e-25
-8.1803911e-25
4.4105651e-25
-8.632248e-25
4.6173357e-25
-9.0746057e-25
4.8395723e-25
-9.5085678e-25
5.0748292e-25
-9.9328619e-25
5.3211469e-25
-1.0344721e-24
5.5776204e-25
-1.0740723e-24
5.8444297e-25
-1.111667e-24
6.1252283e-25
-1.1465562e-24
6.4329108e-25
-1.1778576e-24
6.7930127e-25
-1.2049433e-24
7.1937752e-25
-1.2292287e-24
7.6209698e-25
-1.2510783e-24
8.0652277e-25
-1.270428e-24
8.5165836e-25
-1.2873543e-24
8.953676e-25
-1.3027294e-24
9.3330301e-25
-1.3178421e-24
9.5970328e-25
-1.3319026e-24
9.7937154e-25
-1.3386082e-24
1.0056049e-24
-1.3346378e-24
1.0467318e-24
-1.3227153e-24
1.0929462e-24
-1.3128379e-24
1.132374e-24
-1.3068935e-24
1.1637729e-24
-1.2998527e-24
1.1925331e-24
-1.2880477e-24
1.2228335e-24
-1.2724729e-24
1.2549939e-24
-1.2553884e-24
1.288809e-24
-1.2376862e-24
1.3228143e-24
-1.2200668e-24
1.3561402e-24
-1.2024207e-24
1.3881522e-24
-1.1846835e-24
1.4185225e-24
-1.1668966e-24
1.4471002e-24
-1.1491021e-24
1.4737471e-24
-1.1314255e-24
1.4984045e-24
-1.1140402e-24
1.5209653e-24
-1.0970156e-24
1.5413223e-24
-1.0804894e-24
1.5594017e-24
-1.0645725e-24
1.5751474e-24
-1.0494523e-24
1.5885167e-24
-1.0352315e-24
1.599482e-24
-1.0220735e-24
1.6080344e-24
-1.0101968e-24
1.6141917e-24
-9.9973718e-25
1.6180605e-24
-9.9097178e-25
1.6198559e-24
-9.8424351e-25
1.6202596e-24
-9.8049316e-25
1.6207749e-24
-9.8155946e-25
1.6238359e-24
-9.9022226e-25
1.6312157e-24
-1.0076524e-24
1.6387017e-24
-1.0272893e-24
1.6242752e-24
-1.0271693e-24
1.5291287e-24
-9.7123384e-25
1.2726828e-24
-8.6890678e-25
-9.134653e-25
1.0448185e-24
1.4345459e-24
1.3155727e-24
1.4188633e-24
1.4807529e-24
1.3947418e-24
1.5518577e-24
1.4285117e-24
1.5698058e-24
1.459664e-24
1.5704849e-24
1.4694807e-24
1.5750279e-24
1.4682002e-24
1.5921419e-24
1.4658129e-24
1.6277505e-24
1.4754829e-24
1.675301e-24
1.4981815e-24
1.7169759e-24
1.5300584e-24
1.7201629e-24
1.5350236e-24
1.516298e-24
1.6825235e-24
1.5564545e-25
1.9730638e-25
-2.846963e-25
2.2062089e-25
-3.0658242e-25
2.4317216e-25
-3.49212e-25
2.6435456e-25
-3.9394785e-25
2.8672261e-25
-4.4457564e-25
3.0865075e-25
-4.9580651e-25
3.2816012e-25
-5.4667099e-25
3.4563205e-25
-5.9666674e-25
3.6189694e-25
-6.454749e-25
3.7797989e-25
-6.9371266e-25
3.9450399e-25
-7.4162148e-25
4.1184155e-25
-7.8928334e-25
4.3031759e-25
-8.3651514e-25
4.5019003e-25
-8.8309725e-25
4.7160514e-25
-9.2887568e-25
4.944807e-25
-9.7373234e-25
5.1864478e-25
-1.0174503e-24
5.4396654e-25
-1.0597939e-24
5.7040946e-25
-1.1005152e-24
5.9792357e-25
-1.1391811e-24
6.2676423e-25
-1.1753969e-24
6.5756085e-25
-1.2086542e-24
6.9117082e-25
-1.2385533e-24
7.272969e-25
-1.2653548e-24
7.6533092e-25
-1.2891123e-24
8.0461644e-25
-1.3097135e-24
8.444417e-25
-1.3271795e-24
8.8346867e-25
-1.3417563e-24
9.1954274e-25
-1.3539162e-24
9.5080889e-25
-1.3631688e-24
9.7970747e-25
-1.3675068e-24
1.0112111e-24
-1.3661415e-24
1.0486803e-24
-1.3601845e-24
1.0886881e-24
-1.3528456e-24
1.1266409e-24
-1.3448463e-24
1.1616944e-24
-1.3349062e-24
1.1957122e-24
-1.3220655e-24
1.2301154e-24
-1.3068761e-24
1.2649721e-24
-1.2902451e-24
1.2999447e-24
-1.2726588e-24
1.3343172e-24
-1.2544394e-24
1.3676118e-24
-1.2357153e-24
1.3994813e-24
-1.2165531e-24
1.4296525e-24
-1.1970678e-24
1.4580071e-24
-1.1774567e-24
1.4843903e-24
-1.1578087e-24
1.5086123e-24
-1.1382621e-24
1.5305985e-24
-1.1190018e-24
1.5502212e-24
-1.1001121e-24
1.5673852e-24
-1.0817365e-24
1.5820078e-24
-1.0640749e-24
1.5940177e-24
-1.0472414e-24
1.603356e-24
-1.0314118e-24
1.6099793e-24
-1.0168202e-24
1.6138837e-24
-1.0036415e-24
1.6151117e-24
-9.9219973e-25
1.6139908e-24
-9.8312268e-25
1.611292e-24
-9.7779433e-25
1.6088603e-24
-9.7912773e-25
1.6097293e-24
-9.9109125e-25
1.617464e-24
-1.0153872e-24
1.6343848e-24
-1.04421e-24
1.6562461e-24
-1.0490306e-24
1.629312e-24
-9.4429979e-25
1.8600092e-24
-1.0996039e-24
1.7388473e-24
1.3756184e-24
1.7820923e-24
1.5428644e-24
1.2274958e-24
1.5954809e-24
1.3758952e-24
1.5936788e-24
1.4614661e-24
1.5819479e-24
1.4812116e-24
1.5799979e-24
1.4701502e-24
1.5905053e-24
1.4553055e-24
1.6199549e-24
1.4460332e-24
1.6647004e-24
1.453436e-24
1.7172632e-24
1.4774957e-24
1.7544978e-24
1.497789e-24
1.5087953e-24
1.7620005e-24
1.9078855e-25
2.303955e-25
-3.4618937e-25
2.487563e-25
-3.675728e-25
2.6394104e-25
-4.091326e-25
2.8406795e-25
-4.6470255e-25
3.0506797e-25
-5.1680653e-25
3.2539057e-25
-5.6699359e-25
3.4437592e-25
-6.1565209e-25
3.6245921e-25
-6.6355819e-25
3.8000576e-25
-7.1125921e-25
3.9762911e-25
-7.5924482e-25
4.1590068e-25
-8.0755491e-25
4.352135e-25
-8.5582796e-25
4.558203e-25
-9.0370405e-25
4.7782751e-25
-9.5088288e-25
5.011987e-25
-9.9710353e-25
5.259122e-25
-1.0421638e-24
5.518964e-25
-1.0857781e-24
5.789861e-25
-1.1276049e-24
6.0720029e-25
-1.1673953e-24
6.3659744e-25
-1.204794e-24
6.6733143e-25
-1.2393882e-24
6.9969953e-25
-1.2709214e-24
7.3358848e-25
-1.2992437e-24
7.6874656e-25
-1.3242704e-24
8.048972e-25
-1.3458642e-24
8.4161611e-25
-1.3638984e-24
8.7836439e-25
-1.3785046e-24
9.142055e-25
-1.3897573e-24
9.4856633e-25
-1.3975296e-24
9.824158e-25
-1.4013563e-24
1.0174463e-24
-1.401172e-24
1.0547025e-24
-1.3974406e-24
1.0930504e-24
-1.3911935e-24
1.1308875e-24
-1.3826835e-24
1.1678146e-24
-1.3718332e-24
1.2042821e-24
-1.3585331e-24
1.2406512e-24
-1.3432451e-24
1.2767234e-24
-1.3263173e-24
1.3122256e-24
-1.308161e-24
1.3467822e-24
-1.2889961e-24
1.3800493e-24
-1.2689823e-24
1.4117902e-24
-1.248294e-24
1.4418025e-24
-1.2270802e-24
1.4699051e-24
-1.2055593e-24
1.4959285e-24
-1.183832e-24
1.5197168e-24