/*--------------------------------*- C++ -*----------------------------------*\
| =========                 |                                                 |
| \\      /  F ield         | OpenFOAM: The Open Source CFD Toolbox           |
|  \\    /   O peration     | Version:  2412                                  |
|   \\  /    A nd           | Website:  www.openfoam.com                      |
|    \\/     M anipulation  |                                                 |
\*---------------------------------------------------------------------------*/
FoamFile
{
    version     2.0;
    format      ascii;
    arch        "LSB;label=32;scalar=64";
    class       volVectorField;
    location    "15174";
    object      U;
}
// * * * * * * * * * * * * * * * * * * * * * * * * * * * * * * * * * * * * * //

dimensions      [0 1 -1 0 0 0 0];

internalField   nonuniform List<vector> 
57521
(
(-2.5358732e-09 4.7519459e-09 -8.0652953e-25)
(-2.6563937e-09 4.9641051e-09 3.4981534e-25)
(-2.7887908e-09 5.1375671e-09 -1.0137103e-25)
(-2.9372281e-09 5.2160426e-09 5.3045825e-26)
(-3.0941897e-09 5.1770341e-09 3.9688257e-26)
(-3.2545251e-09 4.9816036e-09 -6.0344057e-27)
(-3.4103457e-09 4.607343e-09 -1.3457868e-28)
(-3.55604e-09 4.0479503e-09 -2.0866986e-26)
(-3.6891746e-09 3.3186261e-09 -8.0830361e-26)
(-3.8136736e-09 2.4956669e-09 9.3288156e-26)
(-3.9138766e-09 1.7546035e-09 7.9925137e-25)
(1.963765e-07 -1.2546166e-07 -2.3142124e-24)
(1.9896181e-07 -1.2498047e-07 -6.9725744e-25)
(2.0326089e-07 -1.2494099e-07 -2.3274967e-26)
(2.0657439e-07 -1.2449614e-07 1.3484896e-26)
(2.0991996e-07 -1.2399869e-07 3.5568311e-28)
(2.1323936e-07 -1.2355293e-07 3.3050454e-27)
(2.1652467e-07 -1.23192e-07 -2.1204084e-28)
(2.1979011e-07 -1.2293333e-07 6.4082591e-28)
(2.2304415e-07 -1.2278821e-07 -1.1362351e-28)
(2.2629226e-07 -1.227631e-07 5.1876189e-30)
(2.2953902e-07 -1.2285942e-07 1.9509415e-30)
(2.3278873e-07 -1.2307265e-07 -2.3329453e-31)
(2.3604557e-07 -1.2339129e-07 -7.46961e-33)
(2.3931355e-07 -1.2379592e-07 0)
(2.4259609e-07 -1.2425834e-07 0)
(2.458959e-07 -1.2474124e-07 0)
(2.4921455e-07 -1.2519814e-07 -9.3836853e-32)
(2.5255201e-07 -1.2557388e-07 -3.2955332e-31)
(2.5590649e-07 -1.2580576e-07 -9.1594158e-31)
(2.5927406e-07 -1.25825e-07 3.8848859e-31)
(2.6264845e-07 -1.2555848e-07 -9.2537904e-29)
(2.6602113e-07 -1.2493024e-07 1.4327846e-28)
(2.693816e-07 -1.2386205e-07 -7.8639935e-29)
(2.7271783e-07 -1.2227229e-07 4.2448356e-28)
(2.760175e-07 -1.2007308e-07 -5.4923708e-28)
(2.7926811e-07 -1.1716329e-07 1.8597286e-27)
(2.8245692e-07 -1.1342735e-07 1.1338222e-26)
(2.8556575e-07 -1.0873705e-07 1.0927265e-26)
(2.8856475e-07 -1.0297286e-07 -1.4326495e-26)
(2.9141614e-07 -9.6065167e-08 -8.2671652e-27)
(2.9403252e-07 -8.8018937e-08 1.2008435e-26)
(2.9631718e-07 -7.9133938e-08 3.4795591e-26)
(2.9829e-07 -6.9818895e-08 -7.7086571e-27)
(3.0002069e-07 -6.023868e-08 -4.8079563e-26)
(3.0155103e-07 -5.0451228e-08 -2.6471247e-27)
(3.0281568e-07 -4.0428407e-08 -1.0079347e-25)
(3.0372923e-07 -3.0383216e-08 -1.5584912e-26)
(3.0433504e-07 -2.0492359e-08 1.5579854e-26)
(3.0470909e-07 -1.0701885e-08 1.3913995e-27)
(3.0487865e-07 -8.08872e-10 3.9629979e-27)
(3.0484813e-07 9.4657954e-09 -1.8514584e-27)
(3.046016e-07 2.0413708e-08 3.2246418e-27)
(3.0410017e-07 3.2269977e-08 4.0002371e-27)
(3.0326626e-07 4.5133371e-08 1.9925026e-26)
(3.0200297e-07 5.8847224e-08 5.1802214e-26)
(3.0025083e-07 7.3082698e-08 -1.1808265e-25)
(2.9807372e-07 8.7369202e-08 3.6685862e-27)
(2.9555143e-07 1.0149741e-07 -8.8883464e-28)
(2.9263765e-07 1.1529488e-07 5.0377655e-28)
(2.8924913e-07 1.2840779e-07 -2.5762715e-27)
(2.8540641e-07 1.4019665e-07 5.9979934e-28)
(2.8124064e-07 1.5028584e-07 2.1735867e-27)
(2.7685255e-07 1.5858956e-07 -1.7480603e-27)
(2.7231592e-07 1.6523451e-07 2.2667272e-27)
(2.6767525e-07 1.7044075e-07 -7.4515891e-28)
(2.6295595e-07 1.7443555e-07 -3.6212829e-28)
(2.5817555e-07 1.774166e-07 -9.4271077e-29)
(2.5334803e-07 1.7954045e-07 4.5020108e-28)
(2.4848638e-07 1.80921e-07 4.56678e-28)
(2.4360095e-07 1.8163238e-07 -1.4516722e-27)
(2.3868887e-07 1.8170088e-07 -4.5070752e-27)
(2.3376515e-07 1.8105309e-07 7.9836769e-26)
(2.2881118e-07 1.7934452e-07 -1.6775602e-25)
(2.2176297e-07 1.7577336e-07 3.0307301e-26)
(-2.5483572e-09 4.8984545e-09 -2.586207e-24)
(-2.61989e-09 5.0835071e-09 -9.5657281e-27)
(-2.7401378e-09 5.2669455e-09 5.3782133e-26)
(-2.8539453e-09 5.3526298e-09 5.732496e-27)
(-2.988756e-09 5.3289784e-09 -7.8051822e-29)
(-3.1402627e-09 5.141186e-09 -3.6070332e-26)
(-3.2954626e-09 4.7670108e-09 3.0047893e-26)
(-3.451518e-09 4.2021314e-09 -2.9622342e-26)
(-3.6085518e-09 3.4610502e-09 5.6037006e-26)
(-3.7654767e-09 2.6095612e-09 3.8711114e-27)
(-3.9526856e-09 1.7755361e-09 6.637873e-25)
(-3.870539e-09 1.4829037e-09 -5.3283864e-24)
(1.990696e-07 -1.2831278e-07 1.450741e-24)
(2.0341449e-07 -1.2824849e-07 -4.9881333e-26)
(2.0692943e-07 -1.2805697e-07 -7.6488178e-26)
(2.1037271e-07 -1.2764326e-07 -5.8477408e-27)
(2.1376934e-07 -1.2717295e-07 -1.3808479e-26)
(2.1711772e-07 -1.267346e-07 -9.1584932e-28)
(2.2042819e-07 -1.2636946e-07 7.5433538e-28)
(2.2371334e-07 -1.2610253e-07 -3.2747785e-28)
(2.2698039e-07 -1.2594945e-07 9.088828e-29)
(2.3023398e-07 -1.2591895e-07 3.7282215e-30)
(2.3347827e-07 -1.260136e-07 -1.5695183e-29)
(2.3671772e-07 -1.2622949e-07 1.7808424e-35)
(2.3995718e-07 -1.2655529e-07 3.7413756e-33)
(2.4320169e-07 -1.2697142e-07 0)
(2.4645597e-07 -1.2744919e-07 0)
(2.4972419e-07 -1.2795035e-07 1.6146756e-31)
(2.5300938e-07 -1.2842708e-07 -2.6536817e-32)
(2.5631281e-07 -1.2882245e-07 1.0692526e-29)
(2.5963357e-07 -1.2907156e-07 3.3389243e-30)
(2.6296804e-07 -1.2910322e-07 -1.586414e-29)
(2.6630956e-07 -1.2884185e-07 1.3511901e-28)
(2.6964865e-07 -1.282094e-07 -1.4810422e-28)
(2.7297377e-07 -1.2712626e-07 3.5683454e-28)
(2.7627296e-07 -1.2551068e-07 -1.1988325e-28)
(2.7953791e-07 -1.2327622e-07 -1.5028023e-27)
(2.8276508e-07 -1.2032186e-07 -2.9317569e-27)
(2.859554e-07 -1.1652972e-07 -8.7928869e-27)
(2.8910509e-07 -1.117615e-07 -3.3379435e-27)
(2.9218911e-07 -1.0587774e-07 1.8860543e-26)
(2.9516551e-07 -9.879043e-08 -1.7552313e-26)
(2.9786255e-07 -9.0449632e-08 -2.4508708e-26)
(3.0007544e-07 -8.1206564e-08 2.0018456e-27)
(3.01884e-07 -7.1596593e-08 -4.1885422e-27)
(3.0348713e-07 -6.1767708e-08 -3.1065516e-26)
(3.0499119e-07 -5.1774709e-08 1.3596e-25)
(3.0621469e-07 -4.1446536e-08 1.8259135e-25)
(3.0696686e-07 -3.1078292e-08 2.716666e-26)
(3.0737274e-07 -2.093438e-08 -1.4412147e-26)
(3.0760321e-07 -1.0953322e-08 2.8752649e-27)
(3.0771669e-07 -8.9877612e-10 2.0244264e-27)
(3.0772883e-07 9.5396876e-09 -9.6972676e-27)
(3.0762663e-07 2.0686432e-08 3.6448033e-27)
(3.0735812e-07 3.2814858e-08 2.984409e-27)
(3.0677416e-07 4.6063947e-08 3.5657704e-27)
(3.0568547e-07 6.0236683e-08 -9.2798256e-26)
(3.0396627e-07 7.4955705e-08 5.3946444e-26)
(3.0177476e-07 8.9617228e-08 3.841843e-26)
(2.9934163e-07 1.0413731e-07 -5.2686381e-28)
(2.9653881e-07 1.1838798e-07 -8.6472426e-28)
(2.9310327e-07 1.3203174e-07 -2.9658246e-27)
(2.8904524e-07 1.4423693e-07 -2.0697297e-28)
(2.8465092e-07 1.5459011e-07 8.6981293e-28)
(2.8009633e-07 1.6304256e-07 6.8789624e-27)
(2.7548204e-07 1.6977165e-07 -7.8796777e-28)
(2.7084e-07 1.7503428e-07 1.8541466e-27)
(2.6616848e-07 1.7907478e-07 -5.2133464e-29)
(2.6146008e-07 1.8209624e-07 -1.4798994e-28)
(2.5670973e-07 1.842558e-07 -1.4126282e-29)
(2.5191799e-07 1.8566747e-07 7.1423065e-29)
(2.4708741e-07 1.8641172e-07 6.9227743e-28)
(2.4220275e-07 1.8653947e-07 2.162738e-27)
(2.3720998e-07 1.8607362e-07 -6.7650931e-27)
(2.3214752e-07 1.849889e-07 2.543954e-26)
(2.2448009e-07 1.8243577e-07 -9.5228648e-25)
(2.1981729e-07 1.8316175e-07 3.3626654e-24)
(-2.5206606e-09 5.1588373e-09 6.2031137e-25)
(-2.6046535e-09 5.3616934e-09 -1.3072263e-25)
(-2.6761981e-09 5.4640921e-09 1.8318877e-26)
(-2.7749835e-09 5.4690759e-09 -1.1011286e-26)
(-2.9070404e-09 5.2953464e-09 1.6673831e-26)
(-3.0372745e-09 4.9257294e-09 2.9156355e-27)
(-3.1621402e-09 4.3642492e-09 3.8822942e-26)
(-3.2783296e-09 3.6255313e-09 -2.8691998e-26)
(-3.3653524e-09 2.7786626e-09 8.5049531e-26)
(-3.3894065e-09 1.9610929e-09 4.5258518e-26)
(-3.2982645e-09 1.1708208e-09 -3.3149851e-25)
(-2.5520068e-09 4.3478231e-10 1.6872339e-24)
(1.9665862e-07 -1.3264221e-07 1.8222787e-25)
(2.0070675e-07 -1.3171604e-07 -3.1371218e-25)
(2.0537929e-07 -1.3154946e-07 7.9122512e-26)
(2.0926306e-07 -1.3125473e-07 3.8971502e-26)
(2.1288535e-07 -1.3084544e-07 -3.0527256e-26)
(2.1635743e-07 -1.3038563e-07 1.393067e-26)
(2.1973419e-07 -1.2994299e-07 6.9091893e-27)
(2.2305014e-07 -1.2956383e-07 1.4260888e-28)
(2.2632439e-07 -1.2927903e-07 5.0569429e-28)
(2.29566e-07 -1.2910812e-07 -2.5720199e-28)
(2.3278025e-07 -1.2906225e-07 2.6241337e-29)
(2.3597192e-07 -1.2914558e-07 -6.419174e-35)
(2.391464e-07 -1.2935518e-07 3.522456e-36)
(2.4230991e-07 -1.2968034e-07 0)
(2.4546923e-07 -1.3010164e-07 0)
(2.4863119e-07 -1.3059012e-07 -1.1021785e-31)
(2.5180231e-07 -1.3110673e-07 -1.9155399e-31)
(2.5498802e-07 -1.316022e-07 3.6342053e-30)
(2.5819183e-07 -1.320175e-07 -2.5090707e-29)
(2.6141451e-07 -1.3228498e-07 -1.8102195e-29)
(2.6465323e-07 -1.3233024e-07 -4.9683571e-29)
(2.6790096e-07 -1.3207447e-07 -6.247757e-28)
(2.7114659e-07 -1.3143703e-07 1.8205314e-28)
(2.7437603e-07 -1.3033721e-07 -1.5455007e-28)
(2.7757503e-07 -1.286952e-07 2.5797763e-28)
(2.8073922e-07 -1.2643156e-07 -4.0848278e-28)
(2.838752e-07 -1.2344929e-07 -5.3402083e-27)
(2.8699981e-07 -1.1963184e-07 -2.0704073e-27)
(2.9013411e-07 -1.1482599e-07 -3.2168955e-27)
(2.9326316e-07 -1.0885668e-07 -1.4130358e-26)
(2.9637079e-07 -1.0161476e-07 2.9292e-26)
(2.9920146e-07 -9.2881113e-08 3.677925e-26)
(3.0131071e-07 -8.3102342e-08 -1.4865077e-26)
(3.0281267e-07 -7.3157549e-08 6.5441867e-26)
(3.0408002e-07 -6.3139096e-08 4.9094048e-26)
(3.0546122e-07 -5.3122947e-08 1.0069289e-25)
(3.0655841e-07 -4.239672e-08 -1.6277463e-25)
(3.0696514e-07 -3.154727e-08 1.4872082e-26)
(3.0701859e-07 -2.1151321e-08 6.9728346e-27)
(3.0704151e-07 -1.1058764e-08 -1.0455503e-27)
(3.07086e-07 -9.4548582e-10 -2.110287e-26)
(3.0716178e-07 9.5450207e-09 -1.05098e-26)
(3.0726681e-07 2.0779183e-08 1.2928056e-26)
(3.0736938e-07 3.3095009e-08 3.6791178e-27)
(3.0721962e-07 4.6741058e-08 -2.1367672e-27)
(3.0647476e-07 6.1532281e-08 8.5487546e-26)
(3.0483175e-07 7.687586e-08 9.5958186e-26)
(3.02687e-07 9.1712897e-08 2.5387431e-26)
(3.0059356e-07 1.0657977e-07 -1.8345798e-26)
(2.9810338e-07 1.2140239e-07 9.8012899e-27)
(2.9463877e-07 1.358542e-07 1.5386738e-27)
(2.9023899e-07 1.4855957e-07 -2.4311098e-27)
(2.8555993e-07 1.5912462e-07 2.0682851e-27)
(2.8084562e-07 1.6762178e-07 -7.8396577e-28)
(2.7621518e-07 1.7433189e-07 4.269709e-27)
(2.7166401e-07 1.7957791e-07 -4.7819301e-27)
(2.6714305e-07 1.8362363e-07 -1.0308315e-27)
(2.6261001e-07 1.866702e-07 -2.0669295e-28)
(2.5803502e-07 1.888669e-07 -1.036385e-28)
(2.5340406e-07 1.9031905e-07 4.108585e-28)
(2.4871347e-07 1.9110774e-07 -8.1037515e-28)
(2.4395227e-07 1.9129849e-07 4.4182757e-27)
(2.3908444e-07 1.9097153e-07 -3.4138816e-26)
(2.3405289e-07 1.9029033e-07 3.5140539e-26)
(2.2882213e-07 1.8956521e-07 5.0335594e-26)
(2.2333634e-07 1.8928633e-07 3.1265186e-25)
(-2.3914389e-09 5.2383726e-09 -3.8164111e-24)
(-2.3881133e-09 5.435674e-09 9.895576e-26)
(-2.4323604e-09 5.5485737e-09 -1.510635e-25)
(-2.4532365e-09 5.575305e-09 5.7951272e-26)
(-2.5483142e-09 5.4114635e-09 -4.9857698e-26)
(-2.6096242e-09 5.0357905e-09 1.9142664e-26)
(-2.6442639e-09 4.4633372e-09 -8.8255039e-26)
(-2.6493706e-09 3.6898193e-09 -7.8164965e-26)
(-2.5830089e-09 2.769738e-09 1.3901292e-26)
(-2.3818284e-09 1.7800447e-09 1.2838378e-26)
(-1.9395555e-09 7.9643054e-10 1.2630542e-25)
(-9.339516e-10 -2.1352022e-10 6.238769e-25)
(1.9240452e-07 -1.392143e-07 2.9412624e-25)
(1.9544959e-07 -1.3818926e-07 2.2939413e-25)
(1.9861451e-07 -1.3693982e-07 3.5701407e-25)
(2.0321392e-07 -1.3596212e-07 2.9266666e-25)
(2.0742318e-07 -1.3534377e-07 -1.1896417e-25)
(2.1135523e-07 -1.3484338e-07 -1.0345732e-25)
(2.1505659e-07 -1.3433062e-07 5.4641317e-26)
(2.1857864e-07 -1.3381053e-07 3.0352907e-27)
(2.2197447e-07 -1.3332101e-07 4.0962139e-28)
(2.2528241e-07 -1.3289939e-07 -2.2189572e-27)
(2.2852378e-07 -1.3257452e-07 8.0169338e-29)
(2.3170931e-07 -1.3236631e-07 5.4397829e-29)
(2.3484573e-07 -1.3228714e-07 -1.4907983e-29)
(2.3793938e-07 -1.3234251e-07 -1.937258e-30)
(2.409974e-07 -1.325307e-07 -1.8953406e-36)
(2.4402818e-07 -1.3284192e-07 0)
(2.4704107e-07 -1.3325731e-07 0)
(2.5004598e-07 -1.3374795e-07 3.3647137e-31)
(2.5305287e-07 -1.3427413e-07 3.512813e-30)
(2.5607083e-07 -1.3478507e-07 -5.1301426e-29)
(2.5910688e-07 -1.3521919e-07 7.6970198e-30)
(2.6216472e-07 -1.355053e-07 -8.3722689e-29)
(2.6524323e-07 -1.3556457e-07 -4.8545498e-28)
(2.6833516e-07 -1.3531345e-07 2.0384557e-27)
(2.7142655e-07 -1.3466702e-07 -1.6009054e-27)
(2.7449802e-07 -1.3354253e-07 7.0466383e-28)
(2.7752786e-07 -1.3186319e-07 8.4821616e-28)
(2.8051391e-07 -1.2956553e-07 3.371454e-27)
(2.8347089e-07 -1.2656266e-07 9.0597233e-27)
(2.8642729e-07 -1.2275227e-07 -1.0608051e-26)
(2.8944692e-07 -1.1797447e-07 3.051114e-26)
(2.9253615e-07 -1.119937e-07 -8.3322184e-26)
(2.9569589e-07 -1.0471341e-07 4.571731e-26)
(2.9879009e-07 -9.5215907e-08 1.4031833e-26)
(3.0087547e-07 -8.4606303e-08 -9.1118054e-26)
(3.0192124e-07 -7.4330708e-08 -1.5217069e-25)
(3.0239135e-07 -6.4443889e-08 5.4927218e-26)
(3.029564e-07 -5.4422742e-08 -1.6630269e-24)
(3.0407842e-07 -4.2943941e-08 4.2932138e-25)
(3.0402554e-07 -3.1595736e-08 -1.0426299e-25)
(3.0343845e-07 -2.1042828e-08 3.3097643e-27)
(3.031873e-07 -1.0988851e-08 2.9693342e-26)
(3.0315252e-07 -9.581071e-10 1.8105345e-26)
(3.0328555e-07 9.4424404e-09 7.5213992e-26)
(3.0360483e-07 2.060752e-08 -6.9812266e-26)
(3.0421209e-07 3.2961996e-08 5.0797758e-26)
(3.0486109e-07 4.701684e-08 2.0238025e-26)
(3.0459859e-07 6.2300935e-08 -9.0126836e-28)
(3.0264682e-07 7.8565126e-08 -8.1181389e-25)
(3.011821e-07 9.3813405e-08 1.3225828e-26)
(3.0011316e-07 1.0866208e-07 -1.1122499e-25)
(2.9819057e-07 1.2427478e-07 7.4464833e-27)
(2.9456545e-07 1.4000754e-07 -4.1377533e-27)
(2.8952992e-07 1.5327634e-07 -9.0472379e-27)
(2.8459435e-07 1.6396946e-07 -1.235141e-26)
(2.7980786e-07 1.7237164e-07 2.3578317e-26)
(2.7529546e-07 1.7893532e-07 -1.7529031e-26)
(2.7098337e-07 1.8408848e-07 4.7258469e-27)
(2.6674933e-07 1.8810986e-07 1.5977153e-27)
(2.6251236e-07 1.9118322e-07 1.0714285e-29)
(2.5821626e-07 1.9343753e-07 9.5835906e-28)
(2.5383339e-07 1.9495614e-07 1.5546755e-27)
(2.493567e-07 1.9581318e-07 -7.6953141e-28)
(2.4477273e-07 1.9607456e-07 1.1148463e-26)
(2.4004433e-07 1.9581099e-07 -1.4423741e-26)
(2.3509536e-07 1.9513362e-07 -2.2747824e-26)
(2.3008831e-07 1.9422544e-07 1.7703803e-25)
(2.242279e-07 1.9301273e-07 3.585903e-25)
(-2.203504e-09 5.4493438e-09 6.0445774e-25)
(-2.1105783e-09 5.5589896e-09 -6.3385734e-25)
(-2.0612728e-09 5.6178371e-09 1.5802192e-25)
(-2.1194978e-09 5.4480306e-09 6.0817852e-26)
(-2.0483752e-09 5.0407873e-09 -9.5427922e-28)
(-1.9259131e-09 4.4312744e-09 -4.1555164e-26)
(-1.764664e-09 3.576913e-09 -5.8207831e-26)
(-1.4913971e-09 2.5183626e-09 -3.3482517e-26)
(-1.0221907e-09 1.2775301e-09 5.6855716e-26)
(-1.9971337e-10 -8.2890394e-11 -3.3004234e-26)
(1.1031457e-09 -1.5238769e-09 -3.2351101e-25)
(3.1038904e-09 -3.3671524e-09 -1.6359282e-24)
(1.8432403e-07 -1.4631753e-07 -2.5466644e-24)
(1.8834036e-07 -1.4571948e-07 -1.0464605e-24)
(1.9268253e-07 -1.4371871e-07 5.1392794e-25)
(1.9734123e-07 -1.4292689e-07 -8.8267846e-26)
(2.0093831e-07 -1.4123911e-07 3.0395688e-26)
(2.0513052e-07 -1.4008053e-07 -1.2825515e-26)
(2.092584e-07 -1.3924392e-07 6.6076383e-26)
(2.1319999e-07 -1.3853109e-07 -2.0832149e-26)
(2.1693265e-07 -1.3786216e-07 -3.003346e-27)
(2.2047863e-07 -1.3722742e-07 -1.3009906e-27)
(2.2387735e-07 -1.3664695e-07 -5.6237781e-27)
(2.2716025e-07 -1.3614726e-07 4.3756653e-28)
(2.3034636e-07 -1.3575202e-07 -1.3285369e-28)
(2.3344684e-07 -1.3547955e-07 -6.5629207e-29)
(2.3646991e-07 -1.3534253e-07 7.3634781e-30)
(2.3942383e-07 -1.3534753e-07 5.0440832e-31)
(2.4231798e-07 -1.354942e-07 1.10261e-31)
(2.4516336e-07 -1.357741e-07 1.5245367e-31)
(2.4797256e-07 -1.3616943e-07 3.0487499e-31)
(2.5075933e-07 -1.3665182e-07 1.4655738e-29)
(2.5353807e-07 -1.371813e-07 2.3254367e-29)
(2.5632279e-07 -1.377057e-07 -1.0696767e-28)
(2.5912555e-07 -1.3816069e-07 -3.3764703e-28)
(2.6195457e-07 -1.3847069e-07 1.1869712e-27)
(2.6481182e-07 -1.3855101e-07 -3.0142172e-27)
(2.6769005e-07 -1.3831082e-07 -5.2252393e-29)
(2.7057111e-07 -1.3765749e-07 -6.5057708e-27)
(2.7342715e-07 -1.3650223e-07 -3.0406514e-27)
(2.7622099e-07 -1.3476897e-07 4.446591e-27)
(2.7895245e-07 -1.324241e-07 9.060636e-27)
(2.8163588e-07 -1.2939547e-07 -1.7225001e-27)
(2.8427162e-07 -1.2562724e-07 2.3405239e-26)
(2.8700925e-07 -1.2098419e-07 -1.7025072e-26)
(2.9000066e-07 -1.1503363e-07 1.3252798e-25)
(2.9304921e-07 -1.0803503e-07 7.8507762e-26)
(2.9595515e-07 -9.8248352e-08 -5.8054484e-25)
(2.9809869e-07 -8.6010535e-08 1.9107271e-25)
(2.9856121e-07 -7.5075209e-08 3.668118e-25)
(2.981976e-07 -6.4568565e-08 -1.209788e-25)
(2.9734505e-07 -5.636823e-08 2.5757829e-24)
(2.9682795e-07 8.1415213e-08 1.7975785e-24)
(2.9720192e-07 9.4404058e-08 -2.5693105e-25)
(2.9757664e-07 1.1022357e-07 1.1691691e-25)
(2.9648457e-07 1.2676478e-07 -3.3784333e-25)
(2.9210882e-07 1.4474898e-07 2.8763928e-25)
(2.8639286e-07 1.5839155e-07 1.100606e-25)
(2.8163996e-07 1.6898216e-07 -3.2514086e-26)
(2.7696881e-07 1.7697385e-07 -7.8741806e-27)
(2.7278754e-07 1.8319925e-07 -1.9806889e-27)
(2.6891781e-07 1.881766e-07 -7.9484319e-27)
(2.6512876e-07 1.9215675e-07 -4.7250042e-27)
(2.6131376e-07 1.9527281e-07 -3.8655102e-28)
(2.573973e-07 1.9761851e-07 -2.2925241e-28)
(2.5334536e-07 1.9923979e-07 -1.5858578e-27)
(2.4915904e-07 2.0020248e-07 -2.7299472e-27)
(2.4482807e-07 2.0057879e-07 2.6375714e-27)
(2.4031463e-07 2.0044527e-07 2.4381644e-26)
(2.3553648e-07 1.9990271e-07 -7.227362e-26)
(2.3043159e-07 1.9910566e-07 1.3771271e-25)
(2.2463534e-07 1.9774101e-07 -7.0228941e-25)
(2.2004792e-07 1.9732194e-07 3.1143706e-25)
(-1.8168875e-09 5.5234794e-09 -1.7584839e-25)
(-1.5963318e-09 5.3830171e-09 -2.5626383e-25)
(-1.410027e-09 4.8953499e-09 4.0293266e-25)
(-1.0669327e-09 4.199406e-09 -3.9080758e-26)
(-6.9348886e-10 3.2352939e-09 -1.5224674e-26)
(-1.7329219e-10 1.9971422e-09 1.5014299e-25)
(5.9945127e-10 4.5770068e-10 4.7560795e-26)
(1.7974492e-09 -1.3257536e-09 -4.7356208e-26)
(3.5122134e-09 -3.3245366e-09 -5.989274e-26)
(5.7390458e-09 -5.6119007e-09 -1.002774e-25)
(8.9e-09 -8.2109662e-09 -1.2781277e-25)
(1.7426359e-07 -1.5368867e-07 1.8277173e-24)
(1.7911305e-07 -1.531535e-07 9.5248389e-25)
(1.8413655e-07 -1.5086971e-07 3.1648672e-25)
(1.8976235e-07 -1.5052532e-07 5.0893412e-26)
(1.9403166e-07 -1.4881021e-07 -6.4147323e-26)
(1.983366e-07 -1.4714435e-07 5.3295765e-26)
(2.0245601e-07 -1.455527e-07 -2.1208671e-27)
(2.0670151e-07 -1.4429281e-07 7.5750003e-26)
(2.1084617e-07 -1.4324716e-07 -2.4367927e-26)
(2.1480607e-07 -1.4232004e-07 -6.7889854e-27)
(2.1855636e-07 -1.4146676e-07 2.0928328e-26)
(2.2211051e-07 -1.406787e-07 4.9425501e-27)
(2.254953e-07 -1.3996758e-07 -1.208133e-27)
(2.2873354e-07 -1.3935217e-07 1.0919798e-27)
(2.3184068e-07 -1.3885147e-07 2.5821246e-28)
(2.3482755e-07 -1.3848208e-07 -3.7691747e-29)
(2.3770359e-07 -1.3825678e-07 -1.7963626e-31)
(2.4047881e-07 -1.381833e-07 -1.5248159e-31)
(2.4316482e-07 -1.3826297e-07 0)
(2.457754e-07 -1.3848919e-07 4.0932833e-36)
(2.4832661e-07 -1.3884593e-07 3.7897318e-31)
(2.5083663e-07 -1.3930611e-07 3.1026929e-31)
(2.5332517e-07 -1.398302e-07 3.7248087e-29)
(2.5581244e-07 -1.4036513e-07 5.5756687e-28)
(2.5831728e-07 -1.4084385e-07 -1.5654421e-27)
(2.6085442e-07 -1.411859e-07 6.2684715e-27)
(2.6343047e-07 -1.4129894e-07 -3.8094372e-27)
(2.6603866e-07 -1.4108118e-07 -1.8249811e-27)
(2.6865576e-07 -1.404259e-07 -1.8019703e-26)
(2.7124474e-07 -1.3922982e-07 -1.9170918e-26)
(2.7374302e-07 -1.3740867e-07 3.8317094e-26)
(2.7616948e-07 -1.3498394e-07 -6.9646921e-27)
(2.7852895e-07 -1.3188317e-07 -3.771426e-27)
(2.8061971e-07 -1.2817832e-07 -2.5746382e-27)
(2.8284315e-07 -1.2362472e-07 2.3909121e-26)
(2.8473534e-07 -1.1761019e-07 1.7188344e-25)
(2.8648034e-07 -1.1054047e-07 -1.6824466e-24)
(2.8413016e-07 1.5001678e-07 -1.2073173e-24)
(2.8069086e-07 1.6271114e-07 2.6462586e-25)
(2.7681642e-07 1.7389801e-07 -1.3032605e-25)
(2.7231592e-07 1.8132821e-07 1.016891e-26)
(2.6882018e-07 1.8699614e-07 5.9322537e-26)
(2.6566084e-07 1.9173785e-07 -2.3804813e-26)
(2.6246913e-07 1.9570732e-07 -8.0343109e-27)
(2.5918736e-07 1.9891993e-07 1.0180382e-26)
(2.5573998e-07 2.0141662e-07 -1.1943326e-26)
(2.5209528e-07 2.0318353e-07 2.1426168e-26)
(2.4828639e-07 2.042842e-07 6.5821356e-27)
(2.4432556e-07 2.048027e-07 -6.0981921e-27)
(2.4021059e-07 2.0484144e-07 -6.9265182e-27)
(2.3592073e-07 2.0453126e-07 4.628645e-26)
(2.3143228e-07 2.0407429e-07 -2.2072237e-26)
(2.2700399e-07 2.0370457e-07 -9.5142034e-26)
(2.2222122e-07 2.0358233e-07 3.6833024e-25)
(2.1827104e-07 2.0290188e-07 -3.7204317e-25)
(-1.0940168e-09 5.0209794e-09 2.5070388e-24)
(-7.1125835e-10 4.4666548e-09 -8.299668e-25)
(-1.7176849e-10 3.7183232e-09 4.3850463e-25)
(4.6168247e-10 2.6094976e-09 2.1224568e-25)
(1.2509314e-09 1.1772858e-09 -2.1256662e-25)
(2.342857e-09 -7.2989537e-10 -8.5176731e-26)
(3.9712184e-09 -3.0247777e-09 1.5078535e-25)
(6.2119961e-09 -5.6204529e-09 -6.1928945e-26)
(9.0853057e-09 -8.5430178e-09 -3.879546e-26)
(1.2855396e-08 -1.1935384e-08 -1.1597379e-25)
(1.7729979e-08 -1.6780455e-08 -3.3812182e-24)
(1.6253084e-07 -1.6141571e-07 -2.6199119e-24)
(1.6812019e-07 -1.6084657e-07 4.5562848e-25)
(1.7376697e-07 -1.584233e-07 -3.0983163e-25)
(1.8023813e-07 -1.5836188e-07 2.2407213e-26)
(1.8520666e-07 -1.5662612e-07 6.1298119e-27)
(1.9023479e-07 -1.550332e-07 -2.0021443e-26)
(1.94831e-07 -1.5328483e-07 -1.2805911e-26)
(1.9933879e-07 -1.5161626e-07 1.7073741e-28)
(2.0373757e-07 -1.5000756e-07 -1.7627656e-26)
(2.0807772e-07 -1.485858e-07 -1.6805561e-26)
(2.1225909e-07 -1.4731971e-07 2.1773627e-26)
(2.162359e-07 -1.4616844e-07 -2.5841369e-26)
(2.1999323e-07 -1.4510848e-07 5.8167437e-27)
(2.2353919e-07 -1.4413524e-07 1.7735755e-27)
(2.2689016e-07 -1.4325692e-07 -1.2149677e-28)
(2.3006128e-07 -1.4248777e-07 -1.8366957e-28)
(2.3306443e-07 -1.4184398e-07 -1.0598545e-28)
(2.3590958e-07 -1.4134119e-07 1.2597416e-30)
(2.3860667e-07 -1.4099268e-07 3.5196123e-31)
(2.4116686e-07 -1.4080768e-07 2.486183e-36)
(2.4360352e-07 -1.4078973e-07 0)
(2.4593287e-07 -1.409348e-07 -3.5187373e-31)
(2.4817439e-07 -1.4122954e-07 -5.7896955e-30)
(2.5035085e-07 -1.4164926e-07 -6.9208677e-29)
(2.5248794e-07 -1.4215602e-07 -3.4212189e-28)
(2.5461324e-07 -1.426969e-07 3.7302784e-28)
(2.5675401e-07 -1.4320294e-07 1.6046509e-27)
(2.5893333e-07 -1.4358871e-07 9.9386062e-27)
(2.6116394e-07 -1.4375248e-07 1.749035e-27)
(2.6344025e-07 -1.4357633e-07 2.023058e-26)
(2.6573504e-07 -1.4292934e-07 -3.2542784e-26)
(2.6800661e-07 -1.4168071e-07 -5.4108527e-27)
(2.7014321e-07 -1.3972774e-07 5.1412989e-26)
(2.7226983e-07 -1.3718354e-07 -7.8916321e-26)
(2.7446571e-07 -1.3385808e-07 2.8521806e-26)
(2.7573363e-07 -1.3018389e-07 -1.4341866e-25)
(2.7709214e-07 -1.2501239e-07 -1.4781091e-24)
(2.7862417e-07 -1.1932478e-07 -1.1974213e-24)
(2.6847454e-07 1.7760169e-07 -5.4288585e-25)
(2.6580179e-07 1.8465675e-07 -4.4276471e-26)
(2.6365132e-07 1.899285e-07 4.9330535e-26)
(2.6151238e-07 1.9453002e-07 -5.0644978e-26)
(2.5899847e-07 1.9861634e-07 -3.6103668e-26)
(2.563083e-07 2.020243e-07 7.346591e-27)
(2.5339301e-07 2.0475878e-07 -1.6420435e-26)
(2.5020924e-07 2.0671305e-07 1.1837395e-26)
(2.4684428e-07 2.0796323e-07 5.3385654e-27)
(2.4333654e-07 2.0861096e-07 -5.0450185e-27)
(2.3971345e-07 2.0877456e-07 -4.748648e-27)
(2.3599503e-07 2.0858922e-07 -3.6352631e-26)
(2.3220359e-07 2.082325e-07 -3.4930165e-27)
(2.2846004e-07 2.0797666e-07 4.4157917e-26)
(2.2520258e-07 2.0803616e-07 -8.1478964e-26)
(2.215272e-07 2.0742946e-07 9.7389154e-26)
(2.18853e-07 2.0611781e-07 3.1383307e-24)
(6.4129396e-10 2.9138441e-09 -1.5314724e-24)
(1.6215767e-09 1.7134567e-09 -1.3342822e-25)
(2.6571553e-09 4.747221e-11 4.1122191e-28)
(4.0326117e-09 -2.3039618e-09 1.6741462e-27)
(6.0798872e-09 -5.205229e-09 -7.3915908e-27)
(8.8074555e-09 -8.5027198e-09 2.0170678e-26)
(1.2219706e-08 -1.2210988e-08 3.6552482e-26)
(1.6443038e-08 -1.6477419e-08 -1.2695555e-25)
(2.2159482e-08 -2.1845703e-08 9.0091044e-25)
(2.7079375e-08 -2.9752919e-08 -6.2542422e-25)
(3.0059978e-08 -3.8930408e-08 -4.5739854e-25)
(3.3447196e-08 -4.5487174e-08 -6.0833727e-25)
(1.3722393e-07 -1.7321892e-07 -2.8121757e-24)
(1.4346836e-07 -1.752988e-07 -4.6734296e-25)
(1.4764611e-07 -1.7530159e-07 2.1023882e-25)
(1.5147496e-07 -1.7350501e-07 -6.0378242e-25)
(1.5526541e-07 -1.7050964e-07 3.1748105e-25)
(1.6183142e-07 -1.667643e-07 6.1874564e-26)
(1.6922415e-07 -1.6662896e-07 -1.1500103e-25)
(1.7482373e-07 -1.6489948e-07 3.3841256e-26)
(1.8055916e-07 -1.6335184e-07 4.4357353e-26)
(1.8577954e-07 -1.6156636e-07 -2.196887e-26)
(1.9087248e-07 -1.5986052e-07 4.3589078e-27)
(1.957194e-07 -1.5805117e-07 1.0486688e-26)
(2.0041668e-07 -1.5625708e-07 -3.0726542e-27)
(2.0496704e-07 -1.5452147e-07 1.972144e-26)
(2.0937125e-07 -1.5291032e-07 -1.1424395e-26)
(2.1357899e-07 -1.5142024e-07 2.0729964e-27)
(2.1756303e-07 -1.5003717e-07 1.4681193e-27)
(2.2131278e-07 -1.4875228e-07 -1.0106972e-27)
(2.248309e-07 -1.4756593e-07 -9.1896438e-29)
(2.2812568e-07 -1.464861e-07 -4.8306114e-28)
(2.3120605e-07 -1.4552568e-07 3.7132388e-29)
(2.3408045e-07 -1.4469996e-07 4.411234e-29)
(2.3675731e-07 -1.4402475e-07 -3.5227933e-29)
(2.392461e-07 -1.4351453e-07 -1.5249922e-31)
(2.4155817e-07 -1.4318063e-07 2.9932505e-36)
(2.4370777e-07 -1.4302946e-07 -2.2054006e-31)
(2.4571284e-07 -1.4306052e-07 -2.3538141e-30)
(2.4759574e-07 -1.4326432e-07 -9.8151055e-30)
(2.4938356e-07 -1.4362004e-07 2.4928141e-29)
(2.5110814e-07 -1.44093e-07 6.4768558e-28)
(2.5280503e-07 -1.446323e-07 -1.1536879e-27)
(2.5451097e-07 -1.4516869e-07 -6.2117821e-27)
(2.5625853e-07 -1.4561264e-07 7.3110247e-27)
(2.5806792e-07 -1.4585144e-07 -4.6141955e-26)
(2.5993775e-07 -1.4574431e-07 5.5667888e-26)
(2.6184302e-07 -1.4511907e-07 -1.672091e-26)
(2.6374068e-07 -1.4380177e-07 5.1474797e-26)
(2.6539753e-07 -1.416872e-07 6.2112454e-26)
(2.6727002e-07 -1.3887505e-07 -2.4086169e-25)
(2.6861039e-07 -1.3514682e-07 -3.5713141e-25)
(2.6941909e-07 -1.3104514e-07 1.2776027e-24)
(2.5879199e-07 1.8640305e-07 -1.8287986e-24)
(2.5779118e-07 1.914585e-07 8.7172597e-26)
(2.5705652e-07 1.9635853e-07 5.3820234e-26)
(2.5498308e-07 2.0079226e-07 1.6868931e-26)
(2.5282378e-07 2.0451297e-07 3.012265e-26)
(2.5046931e-07 2.0759167e-07 -1.1447151e-25)
(2.4777599e-07 2.097694e-07 9.4190828e-26)
(2.4491155e-07 2.1116846e-07 -8.2042877e-26)
(2.4192654e-07 2.1191825e-07 1.8772856e-26)
(2.3887119e-07 2.1215773e-07 -5.6128e-28)
(2.3578181e-07 2.1202014e-07 2.1104931e-27)
(2.3269661e-07 2.1164074e-07 4.7619867e-27)
(2.2969131e-07 2.1116808e-07 4.0684796e-26)
(2.2698462e-07 2.1067149e-07 -2.0730803e-26)
(2.2468424e-07 2.0978035e-07 1.9913213e-25)
(2.217667e-07 2.0763498e-07 1.6495072e-25)
(2.7409231e-09 5.1509977e-10 -2.2010852e-24)
(3.9457227e-09 -1.1914478e-09 4.2050191e-25)
(5.5711203e-09 -4.1508798e-09 -3.4872164e-26)
(8.0324642e-09 -7.7504541e-09 -7.5073829e-26)
(1.1085432e-08 -1.1775036e-08 4.6006357e-26)
(1.4801403e-08 -1.6217896e-08 3.97704e-26)
(1.9146526e-08 -2.1218093e-08 9.5302964e-26)
(2.4090286e-08 -2.7191806e-08 -1.2298742e-25)
(2.8829765e-08 -3.5005761e-08 -6.1394857e-26)
(3.2570904e-08 -4.2691283e-08 7.0019349e-26)
(3.7225632e-08 -5.0040549e-08 -7.3165412e-25)
(4.1965877e-08 -5.9761821e-08 3.6844032e-25)
(4.4486952e-08 -6.8542023e-08 -9.2981501e-26)
(4.6885677e-08 -7.6760585e-08 -6.9461184e-26)
(4.9497215e-08 -8.4448093e-08 4.5094442e-26)
(5.2174378e-08 -9.1838917e-08 1.7495758e-25)
(5.4885304e-08 -9.8765794e-08 -2.597451e-26)
(5.7774653e-08 -1.0546937e-07 1.3945004e-25)
(6.0822915e-08 -1.1204466e-07 -1.3460844e-25)
(6.401541e-08 -1.185413e-07 -4.1255904e-27)
(6.7295886e-08 -1.2477774e-07 -8.1253274e-27)
(7.0728386e-08 -1.3080139e-07 6.1616313e-27)
(7.432063e-08 -1.3665154e-07 9.1176194e-27)
(7.8067789e-08 -1.4232046e-07 -1.2862033e-27)
(8.1965847e-08 -1.4778905e-07 8.9762583e-27)
(8.6007359e-08 -1.5303218e-07 6.2416582e-27)
(9.0180706e-08 -1.5801924e-07 1.6252305e-26)
(9.4490724e-08 -1.62716e-07 4.0423582e-27)
(9.8850313e-08 -1.6694531e-07 2.9864659e-25)
(1.0307882e-07 -1.7039621e-07 2.0679701e-25)
(1.0742605e-07 -1.7331235e-07 8.5349264e-26)
(1.1185261e-07 -1.7571107e-07 1.2618435e-25)
(1.163534e-07 -1.7757081e-07 3.4565029e-25)
(1.2094368e-07 -1.7884423e-07 -1.7004908e-25)
(1.2555667e-07 -1.7944168e-07 7.8308259e-26)
(1.3014615e-07 -1.7909142e-07 5.7537056e-25)
(1.3659432e-07 -1.7759538e-07 1.0533348e-24)
(1.4395639e-07 -1.7988603e-07 5.1097111e-26)
(1.4880454e-07 -1.7993471e-07 5.7622793e-26)
(1.533181e-07 -1.786674e-07 2.1709636e-25)
(1.5794372e-07 -1.7660474e-07 7.1258846e-27)
(1.6370642e-07 -1.7410524e-07 -6.2133271e-26)
(1.6985232e-07 -1.7232065e-07 1.3616677e-25)
(1.7556043e-07 -1.7043804e-07 3.0289014e-26)
(1.8120485e-07 -1.6870163e-07 -1.4947e-26)
(1.8658561e-07 -1.6680555e-07 4.1191202e-27)
(1.9178541e-07 -1.6488546e-07 3.6989695e-28)
(1.9677475e-07 -1.629203e-07 2.8313949e-27)
(2.0158621e-07 -1.609688e-07 -2.3857483e-27)
(2.0621815e-07 -1.5906553e-07 -8.6527794e-28)
(2.106588e-07 -1.5724869e-07 1.2677181e-27)
(2.1487741e-07 -1.5552687e-07 2.9640506e-27)
(2.188539e-07 -1.5390085e-07 5.5225232e-28)
(2.2257788e-07 -1.5237189e-07 6.7136649e-28)
(2.2604701e-07 -1.5094528e-07 -2.3055125e-28)
(2.2926331e-07 -1.4963084e-07 -8.6838182e-29)
(2.3223061e-07 -1.4844211e-07 2.0042658e-29)
(2.3495384e-07 -1.4739509e-07 2.202101e-30)
(2.3743903e-07 -1.4650674e-07 -2.263979e-31)
(2.3969405e-07 -1.4579343e-07 0)
(2.4172933e-07 -1.4526925e-07 3.3390062e-36)
(2.4355878e-07 -1.4494428e-07 -6.6164751e-31)
(2.4520096e-07 -1.4482262e-07 -1.3000614e-29)
(2.4668003e-07 -1.4490005e-07 3.545678e-29)
(2.4802654e-07 -1.4516141e-07 -1.9074582e-28)
(2.4927781e-07 -1.455776e-07 1.2423501e-27)
(2.5047703e-07 -1.4610233e-07 -3.9108953e-27)
(2.5167011e-07 -1.4666888e-07 -1.0139063e-26)