/*--------------------------------*- C++ -*----------------------------------*\
| =========                 |                                                 |
| \\      /  F ield         | OpenFOAM: The Open Source CFD Toolbox           |
|  \\    /   O peration     | Version:  2412                                  |
|   \\  /    A nd           | Website:  www.openfoam.com                      |
|    \\/     M anipulation  |                                                 |
\*---------------------------------------------------------------------------*/
FoamFile
{
    version     2.0;
    format      ascii;
    arch        "LSB;label=32;scalar=64";
    class       volScalarField;
    location    "15174";
    object      p;
}
// * * * * * * * * * * * * * * * * * * * * * * * * * * * * * * * * * * * * * //

dimensions      [0 2 -2 0 0 0 0];

internalField   nonuniform List<scalar> 
57425
(
0.0087199444
0.0087284026
0.0087352608
0.0087377416
0.0087423224
0.0087479313
0.0087582331
0.0087644978
0.0087193292
0.008732227
0.0087305674
0.0087357768
0.0087427048
0.0087503796
0.0087632965
0.0087699796
0.0087097182
0.0087204224
0.0087319134
0.0087413525
0.0087509884
0.0087654145
0.0087762502
0.0086989492
0.0087158468
0.0087294386
0.0087397331
0.0087507177
0.0087661387
0.0087839501
0.0088035439
0.0086953939
0.0087120682
0.0087233084
0.0087360999
0.0087470423
0.0087589981
0.0087734754
0.0087879157
0.008710249
0.0087215173
0.0087340873
0.00874383
0.0087541494
0.0087648915
0.0087730807
0.0087899068
0.0087112093
0.0087215358
0.0087326841
0.0087407424
0.0087490527
0.0087565543
0.0087660098
0.0087849309
0.0087134576
0.0087221659
0.008731645
0.0087380918
0.0087445955
0.0087503797
0.0087556244
0.0087592004
0.0087704517
0.0087158678
0.0087231304
0.0087309959
0.0087359729
0.0087409447
0.0087453765
0.008748801
0.0087512193
0.0087479993
0.0087510178
0.008717979
0.0087240613
0.008730542
0.0087343083
0.0087381241
0.0087415098
0.0087440033
0.0087456566
0.0087456389
0.0087402015
0.0087523117
0.0087192605
0.0087245061
0.0087300125
0.0087329285
0.0087359502
0.0087384954
0.0087402663
0.0087409608
0.0087406322
0.0087380353
0.0087349224
0.008742438
0.0087188692
0.0087240423
0.008729278
0.0087318515
0.0087343692
0.00873638
0.0087376745
0.0087379712
0.0087373077
0.0087353025
0.0087330852
0.0087264011
0.0087229064
0.0087266944
0.0087129937
0.0087236269
0.008729456
0.0087317572
0.0087335168
0.0087351004
0.0087359983
0.0087360859
0.0087354178
0.0087338283
0.0087319191
0.0087276157
0.0087278824
0.0087210441
0.0087242107
0.008729498
0.0086747851
0.0087039609
0.0087226888
0.0087305699
0.0087327195
0.0087342962
0.0087349954
0.0087349162
0.0087342062
0.0087327867
0.0087309153
0.008727879
0.0087250252
0.008722105
0.0087258881
0.0087214358
0.0087285621
0.0087340671
0.0087252601
0.0087320971
0.0087345734
0.0087342811
0.0087347401
0.0087348362
0.0087344705
0.0087336667
0.0087324058
0.0087307589
0.0087285697
0.0087262765
0.0087234775
0.0087229924
0.0087221124
0.0087272118
0.0087237121
0.0087328341
0.0087372204
0.0087323845
0.0087358405
0.0087369511
0.0087356333
0.0087353683
0.0087350168
0.0087344268
0.008733556
0.0087324006
0.0087309772
0.0087292792
0.0087275759
0.0087257848
0.0087248069
0.0087233025
0.0087235441
0.0087237857
0.0087296135
0.0087255761
0.0087356677
0.0087395883
0.0087344075
0.0087370809
0.0087382593
0.0087366416
0.0087359889
0.0087353676
0.0087346203
0.0087337135
0.0087326213
0.0087313636
0.0087299553
0.008728542
0.0087272001
0.0087262844
0.0087253283
0.0087250147
0.0087242111
0.008724766
0.008725191
0.0087312357
0.0087267906
0.0087373841
0.0087409199
0.0087406127
0.0087380366
0.0087391667
0.0087374784
0.0087365875
0.0087358057
0.0087349627
0.0087340332
0.0087329898
0.008731849
0.0087306309
0.0087294159
0.0087282776
0.0087273728
0.0087265897
0.0087261805
0.008725694
0.0087256574
0.0087249856
0.0087255315
0.0087259531
0.0087320059
0.0087270755
0.0087377908
0.0087411618
0.0087215034
0.0087430816
0.0087378527
0.0087392327
0.0087379867
0.0087370977
0.008736263
0.0087353827
0.0087344474
0.0087334442
0.0087323844
0.0087312894
0.0087302082
0.0087291932
0.0087283177
0.0087275617
0.0087270208
0.0087265627
0.0087263671
0.0087259839
0.0087259436
0.0087251922
0.0087255531
0.0087257422
0.0087314525
0.0087260067
0.0087356305
0.0087370188
0.0087267437
0.0087381594
0.0087413495
0.0087397719
0.0087385448
0.0087376594
0.0087367672
0.0087358586
0.0087349215
0.0087339466
0.0087329425
0.0087319259
0.008730928
0.0087299855
0.0087291363
0.0087283856
0.0087277671
0.0087272343
0.0087268446
0.0087264605
0.0087262565
0.0087257952
0.0087255873
0.0087245965
0.0087246151
0.0087245888
0.0087295758
0.0087236142
0.0087347817
0.0087372263
0.008730378
0.0087391038
0.0087417099
0.0087399863
0.0087390466
0.0087381823
0.0087372718
0.0087363565
0.0087354249
0.0087344727
0.0087335064
0.0087325402
0.0087315931
0.00873069
0.0087298534
0.0087290929
0.0087284214
0.0087278217
0.0087273044
0.0087268151
0.0087264045
0.0087259435
0.0087255932
0.008724931
0.00872443
0.0087231922
0.00872265
0.008722242
0.0087273439
0.0087212879
0.0087279149
0.0087312975
0.008730233
0.0087320376
0.0087406084
0.0087424729
0.0087405688
0.0087396232
0.0087387211
0.0087377917
0.008736871
0.0087359444
0.0087350088
0.0087340681
0.0087331329
0.0087322154
0.008731332
0.0087304966
0.0087297174
0.008729
0.0087283376
0.0087277285
0.0087271467
0.008726598
0.0087260304
0.008725489
0.0087248585
0.0087242769
0.0087234082
0.0087225263
0.008721068
0.0087205516
0.0087194487
0.0087222708
0.0087268178
0.0087174472
0.0087318217
0.0087337278
0.0087352086
0.0087419341
0.0087432616
0.0087412059
0.0087401809
0.0087392465
0.0087383095
0.0087373894
0.0087364692
0.0087355466
0.0087346233
0.0087337065
0.0087328046
0.0087319281
0.0087310861
0.0087302841
0.0087295249
0.0087288044
0.0087281192
0.0087274543
0.0087268045
0.0087261439
0.0087254766
0.0087247606
0.008724032
0.0087232268
0.0087223908
0.0087213753
0.0087204728
0.0087189271
0.008718553
0.0087180818
0.0087162655
0.0087227518
0.0087166058
0.0087280929
0.0087294773
0.008741509
0.008742501
0.0087436141
0.0087417036
0.0087406572
0.0087397324
0.0087388115
0.008737903
0.0087369934
0.0087360824
0.0087351708
0.0087342645
0.008733369
0.0087324912
0.0087316372
0.0087308104
0.0087300123
0.0087292397
0.0087284884
0.0087277499
0.008727015
0.0087262712
0.0087255109
0.0087247158
0.0087238874
0.0087230108
0.0087220811
0.0087211246
0.0087201724
0.0087190046
0.0087182665
0.0087172226
0.0087149372
0.0087144123
0.0087139507
0.0087185531
0.008710983
0.0087171362
0.0087194508
0.0087177458
0.0087163801
0.0087417887
0.0087411458
0.008742901
0.0087418415
0.0087410095
0.0087401695
0.0087392957
0.0087384114
0.0087375166
0.008736616
0.0087357126
0.0087348112
0.0087339159
0.0087330316
0.0087321622
0.0087313099
0.008730475
0.0087296554
0.0087288465
0.0087280426
0.0087272353
0.0087264159
0.0087255758
0.0087247061
0.0087238004
0.0087228536
0.0087218521
0.0087208195
0.0087197425
0.0087186018
0.0087175919
0.0087164624
0.0087148335
0.0087135573
0.0087115459
0.0087101453
0.0087080577
0.0087100235
0.0087138364
0.0087026401
0.0087170642
0.0087185745
0.0087283877
0.00874127
0.00874512
0.0087435441
0.0087423816
0.0087415301
0.0087406725
0.0087398067
0.0087389321
0.0087380461
0.0087371517
0.0087362526
0.0087353516
0.0087344523
0.0087335579
0.0087326711
0.008731793
0.0087309236
0.0087300608
0.008729201
0.0087283389
0.0087274681
0.0087265812
0.0087256713
0.0087247314
0.0087237546
0.0087227382
0.008721672
0.0087205653
0.0087194016
0.0087181843
0.0087169681
0.0087156674
0.008714174
0.0087127652
0.0087110597
0.0087092471
0.00870661
0.0087051038
0.0087035066
0.0087004099
0.0087059671
0.0086982486
0.0087088416
0.0087091069
0.0087387171
0.0087445947
0.0087452992
0.0087437132
0.0087428075
0.0087419986
0.0087411664
0.0087403216
0.008739459
0.0087385816
0.0087376918
0.008736794
0.0087358904
0.0087349841
0.0087340773
0.0087331718
0.0087322684
0.0087313665
0.0087304642
0.0087295583
0.0087286443
0.008727717
0.0087267702
0.0087257975
0.008724793
0.0087237508
0.0087226668
0.0087215336
0.0087203536
0.0087191148
0.0087178168
0.0087164721
0.0087150425
0.0087134837
0.0087118782
0.0087101537
0.0087082889
0.0087060763
0.0087041895
0.0087018995
0.0086981538
0.0086961553
0.0086943547
0.0086972888
0.0086875756
0.008692086
0.0086925214
0.0086900827
0.0087314946
0.0087453859
0.0087445981
0.0087447149
0.0087439165
0.008743212
0.0087424645
0.0087416725
0.0087408491
0.0087399986
0.0087391271
0.0087382401
0.0087373409
0.0087364322
0.0087355166
0.0087345958
0.0087336712
0.0087327429
0.0087318103
0.0087308717
0.008729924
0.0087289635
0.0087279855
0.0087269847
0.0087259556
0.0087248922
0.0087237896
0.008722643
0.0087214454
0.0087201954
0.008718884
0.0087175072
0.0087160641
0.0087145349
0.0087128956
0.0087111616
0.0087093097
0.0087072996
0.0087051137
0.0087029473
0.0087005609
0.008697517
0.0086946654
0.0086909752
0.008687642
0.0086836928
0.0086836808
0.0086854636
0.008671829
0.0086848803
0.0086854156
0.008724383
0.0087454295
0.008744157
0.0087454771
0.0087451353
0.0087444276
0.0087437357
0.008742999
0.0087422192
0.0087414034
0.0087405581
0.0087396884
0.0087388007
0.0087378973
0.0087369813
0.0087360546
0.0087351187
0.0087341746
0.0087332222
0.0087322608
0.0087312886
0.008730303
0.0087293005
0.0087282769
0.0087272276
0.0087261474
0.0087250311
0.0087238733
0.008722669
0.0087214118
0.0087200977
0.0087187192
0.0087172698
0.0087157441
0.0087141285
0.008712408
0.0087105793
0.0087086259
0.0087065165
0.0087042477
0.0087018692
0.0086992993
0.0086964026
0.0086934399
0.0086900603
0.0086862863
0.0086815602
0.0086777633
0.0086738107
0.008668255
0.0086704209
0.00865897
0.0086603188
0.0086556301
0.0086490594
0.0087364178
0.0087450104
0.008748184
0.0087467353
0.0087458065
0.0087450642
0.0087443348
0.0087435852
0.0087428022
0.0087419861
0.0087411401
0.0087402687
0.0087393768
0.0087384668
0.0087375413
0.008736602
0.0087356503
0.0087346867
0.008733711
0.0087327225
0.0087317194
0.0087306992
0.0087296588
0.0087285944
0.0087275015
0.0087263755
0.0087252114
0.0087240037
0.0087227473
0.0087214362
0.0087200644
0.0087186257
0.0087171115
0.0087155158
0.0087138261
0.0087120307
0.0087101206
0.0087080821
0.0087058929
0.0087035446
0.0087010425
0.0086983447
0.0086953901
0.0086922489
0.0086888628
0.0086851232
0.008680909
0.0086767628
0.0086720235
0.0086655562
0.008660512
0.00865464
0.008651261
0.0086478033
0.008630756
0.0086357446
0.0086293323
0.0086273711
0.0086201116
0.008737643
0.0087505598
0.0087474303
0.0087478483
0.0087469577
0.0087463096
0.0087456455
0.0087449374
0.008744195
0.008743413
0.0087425952
0.0087417459
0.0087408699
0.0087399711
0.0087390521
0.0087381153
0.0087371623
0.0087361941
0.0087352111
0.0087342131
0.0087331992
0.0087321676
0.008731116
0.0087300415
0.0087289404
0.0087278088
0.008726642
0.0087254352
0.0087241832
0.0087228805
0.0087215212
0.0087200991
0.0087186071
0.0087170372
0.0087153818
0.0087136296
0.0087117703
0.0087097919
0.0087076828
0.0087054246
0.0087030058
0.0087004183
0.0086976347
0.0086946201
0.0086913786
0.0086878858
0.0086840611
0.0086799224
0.0086755865
0.0086708602
0.0086652419
0.00865954
0.0086526038
0.0086459965
0.0086388285
0.0086296604
0.0086260035
0.0086213365
0.0086162936
0.0085976344
0.008599796
0.0085874747
0.0085791701
0.0085723014
0.0085608493
0.0085543789
0.0085483077
0.008538258
0.0085300728
0.0085217585
0.008737261
0.0087506996
0.0087476714
0.008747904
0.008748005
0.0087474687
0.008746913
0.0087462794
0.0087455857
0.0087448439
0.0087440582
0.0087432343
0.0087423782
0.0087414941
0.0087405857
0.0087396556
0.0087387059
0.0087377381
0.008736753
0.008735751
0.0087347316
0.0087336938
0.008732636
0.008731556
0.0087304509
0.0087293173
0.0087281513
0.0087269486
0.0087257044
0.0087244136
0.0087230706
0.0087216695
0.0087202039
0.0087186666
0.0087170496
0.0087153445
0.0087135412
0.008711629
0.0087095963
0.0087074307
0.0087051173
0.0087026418
0.0086999918
0.0086971463
0.0086940808
0.0086907825
0.008687229
0.0086833677
0.0086792037
0.0086747492
0.0086699381
0.0086646082
0.0086590018
0.0086527353
0.0086462471
0.0086390965
0.008630431
0.0086235698
0.008616485
0.0086080166
0.0085984653
0.0085921213
0.0085829999
0.0085748765
0.0085676936
0.0085590957
0.0085528388
0.0085466872
0.0085392133
0.0085322524
0.008524686
0.0087382591
0.0087511192
0.008748686
0.0087487262
0.0087488934
0.0087486709
0.0087481831
0.0087476253
0.0087469879
0.0087462881
0.0087455365
0.0087447405
0.0087439057
0.0087430386
0.008742143
0.0087412223
0.0087402789
0.0087393149
0.0087383314
0.0087373293
0.0087363085
0.0087352687
0.0087342087
0.008733127
0.0087320214
0.008730889
0.0087297267
0.0087285307
0.0087272968
0.0087260204
0.0087246963
0.0087233191
0.0087218828
0.0087203808
0.0087188061
0.0087171507
0.0087154059
0.0087135621
0.0087116088
0.0087095345
0.0087073268
0.0087049719
0.0087024555
0.0086997631
0.0086968764
0.0086937745
0.0086904413
0.0086868551
0.0086829818
0.008678811
0.0086743307
0.0086695001
0.0086642484
0.0086586455
0.0086526008
0.0086462188
0.0086394118
0.0086318625
0.0086247968
0.0086174268
0.0086091594
0.0085997639
0.008591537
0.008582964
0.0085748742
0.0085672998
0.0085595809
0.008552704
0.008545869
0.0085387097
0.008531558
0.0085239322
0.0087425588
0.0087518366
0.0087499046
0.0087500592
0.0087500607
0.0087498692
0.0087495029
0.0087490004
0.008748418
0.0087477609
0.0087470429
0.0087462731
0.0087454605
0.0087446101
0.0087437279
0.0087428174
0.0087418818
0.0087409233
0.0087399436
0.0087389438
0.0087379244
0.0087368854
0.0087358262
0.0087347457
0.0087336422
0.0087325137
0.0087313574
0.0087301701
0.0087289483
0.0087276879
0.0087263842
0.0087250324
0.0087236269
0.008722162
0.0087206309
0.0087190267
0.0087173415
0.0087155668
0.0087136931
0.00871171
0.0087096066
0.0087073705
0.0087049884
0.0087024466
0.0086997298
0.0086968211
0.0086937017
0.0086903542
0.0086867578
0.0086828877
0.0086787274
0.0086742595
0.0086694557
0.0086642776
0.008658737
0.0086527994
0.0086464964
0.0086398149
0.0086326749
0.008625506
0.0086180525
0.0086101178
0.0086016079
0.0085934777
0.0085851299
0.0085769785
0.0085690703
0.0085611859
0.0085536953
0.0085462683
0.008538705
0.0085311077
0.0085232818
0.0087380668
0.0087524245
0.008750712
0.0087512167
0.0087514093
0.0087511998
0.0087508977
0.0087504596
0.0087499123
0.0087492881
0.0087485966
0.0087478493
0.0087470536
0.008746218
0.0087453471
0.0087444458
0.0087435174
0.0087425645
0.0087415891
0.0087405926
0.008739576
0.0087385394
0.0087374827
0.0087364052
0.0087353058
0.0087341828
0.0087330341
0.0087318569
0.0087306484
0.0087294048
0.0087281223
0.0087267964
0.0087254223
0.0087239946
0.0087225075
0.0087209545
0.0087193287
0.0087176224
0.0087158271
0.0087139337
0.0087119323
0.0087098118
0.0087075605
0.0087051656
0.0087026133
0.008699889
0.0086969765
0.0086938581
0.0086905164
0.0086869317
0.0086830831
0.0086789517
0.0086745192
0.0086697629
0.008664658
0.0086591995
0.0086533673
0.0086471706
0.0086406046
0.0086336517
0.0086264751
0.0086189962
0.0086111573
0.0086029758
0.0085948103
0.008586504
0.0085782702
0.0085701676
0.0085621369
0.0085543204
0.0085465685
0.0085387653
0.0085309125
0.0085228984
0.0087461183
0.0087529973
0.0087534092
0.0087531281
0.0087531161
0.0087528794
0.0087525078
0.0087520706
0.0087515314
0.0087509116
0.0087502288
0.0087494904
0.0087487037
0.0087478753
0.0087470111
0.0087461152
0.0087451913
0.0087442421
0.0087432699
0.0087422763
0.0087412622
0.0087402283
0.0087391747
0.008738101
0.0087370065
0.0087358898
0.0087347494
0.008733583
0.0087323881
0.0087311618
0.0087299005
0.0087286003
0.0087272572
0.0087258661
0.008724422
0.0087229192
0.0087213513
0.0087197115
0.0087179925
0.0087161859
0.008714283
0.0087122739
0.0087101483
0.0087078946
0.0087055005
0.0087029528
0.0087002371
0.0086973379
0.0086942386
0.0086909218
0.008687369
0.0086835607
0.0086794776
0.0086751011
0.0086704103
0.0086653852
0.0086600139
0.008654281
0.0086481858
0.008641724
0.008634893
0.008627758
0.0086202984
0.0086125064
0.0086044176
0.0085961989
0.008587847
0.0085794879
0.00857119
0.0085629662
0.0085548856
0.0085468738
0.0085388628
0.0085308194
0.0085226581
0.0087598713
0.0087534696
0.0087584253
0.0087554354
0.0087557949
0.0087553584
0.0087549114
0.008754442
0.0087539135
0.0087533298
0.0087526812
0.0087519778
0.0087512265
0.008750433
0.0087496002
0.0087487335
0.0087478362
0.0087469116
0.0087459622
0.0087449902
0.0087439971
0.0087429841
0.0087419519
0.0087409006
0.0087398303
0.0087387405
0.0087376301
0.0087364979
0.0087353421
0.0087341607
0.0087329511
0.0087317103
0.0087304351
0.0087291217
0.0087277659
0.0087263632
0.0087249085
0.0087233962
0.0087218202
0.0087201741
0.0087184505
0.0087166416
0.0087147387
0.0087127327
0.0087106133
0.0087083696
0.0087059897
0.0087034608
0.0087007692
0.0086978999
0.008694837
0.0086915635
0.0086880617
0.0086843127
0.0086802972
0.008675996
0.0086713889
0.0086664562
0.0086611819
0.0086555506
0.0086495535
0.008643184
0.008636439
0.008629344
0.0086218971
0.0086141082
0.0086060139
0.008597709
0.0085892388
0.0085806998
0.0085721768
0.0085637251
0.0085554109
0.0085471847
0.0085390032
0.0085308308
0.0085225807
0.0087796256
0.0087658536
0.0087650753
0.0087595373
0.0087620658
0.0087589263
0.0087583064
0.0087575012
0.0087567654
0.0087560762
0.0087553733
0.008754645
0.0087538848
0.0087530922
0.0087522679
0.0087514141
0.0087505314
0.0087496223
0.0087486889
0.008747733
0.0087467561
0.0087457596
0.0087447445
0.0087437114
0.0087426607
0.0087415922
0.0087405058
0.0087394006
0.0087382757
0.0087371296
0.0087359607
0.0087347667
0.0087335453
0.0087322935
0.0087310082
0.0087296857
0.0087283219
0.0087269126
0.0087254527
0.008723937
0.0087223597
0.0087207144
0.0087189941
0.0087171915
0.0087152981
0.0087133052
0.008711203
0.0087089812
0.0087066283
0.0087041321
0.0087014794
0.0086986559
0.0086956463
0.0086924341
0.0086890019
0.0086853312
0.0086814027
0.0086771963
0.0086726914
0.008667867
0.0086627038
0.0086571831
0.008651289
0.0086450095
0.0086383353
0.008631272
0.0086238194
0.0086159892
0.0086078152
0.0085993619
0.0085906937
0.0085819017
0.0085730984
0.0085643792
0.0085558557
0.008547455
0.0085391495
0.008530919
0.0085226511
0.0088491878
0.0087765755
0.0087696937
0.0087741318
0.0087680033
0.0087686084
0.0087650509
0.0087638068
0.0087617204
0.0087606237
0.0087595551
0.0087585979
0.0087577122
0.008756848
0.0087559869
0.0087551187
0.0087542372
0.0087533394
0.0087524236
0.008751489
0.0087505357
0.0087495643
0.0087485754
0.0087475697
0.0087465478
0.00874551
0.0087444565
0.0087433873
0.008742302
0.0087412001
0.0087400807
0.0087389426
0.0087377845
0.0087366045
0.0087354005
0.0087341701
0.0087329105
0.0087316187
0.008730291
0.0087289238
0.0087275127
0.0087260531
0.0087245398
0.0087229675
0.0087213299
0.0087196206
0.0087178324
0.0087159574
0.0087139873
0.0087119129
0.0087097243
0.0087074107
0.0087049605
0.008702361
0.0086995987
0.0086966587
0.0086935252
0.008690181
0.0086866079
0.0086827862
0.0086786951
0.0086743127
0.0086696159
0.0086645816
0.0086591864
0.0086534075
0.0086472247
0.0086406195
0.0086335833
0.0086261088
0.0086182007
0.0086098869
0.0086012125
0.0085922556
0.0085831094
0.0085739366
0.0085648834
0.008556179
0.00854764
0.0085392545
0.008531054
0.00852286
0.0088422904
0.0088313998
0.0088218645
0.0088140942
0.0088112697
0.0088085028
0.0088060506
0.0088030115
0.0087979899
0.0087961093
0.0087937757
0.0087902684
0.0087787662
0.0087774954
0.0087751101
0.0087775053
0.0087723018
0.0087703447
0.0087676398
0.0087659469
0.0087641205
0.0087627425
0.0087614892
0.0087603594
0.0087593125
0.0087583097
0.0087573307
0.0087563632
0.0087553974
0.0087544282
0.0087534516
0.0087524649
0.008751467
0.0087504571
0.0087494347
0.0087483997
0.008747352
0.0087462913
0.0087452175
0.0087441301
0.0087430286
0.008741912
0.0087407795
0.0087396298
0.0087384614
0.0087372724
0.0087360608
0.0087348242
0.00873356
0.0087322651
0.0087309362
0.0087295697
0.0087281615
0.0087267072
0.008725202
0.0087236407
0.0087220175
0.0087203263
0.0087185603
0.0087167122
0.0087147741
0.0087127375
0.0087105929
0.0087083302
0.0087059386
0.0087034061
0.0087007196
0.0086978652
0.0086948275
0.0086915897
0.0086881337
0.0086844396
0.0086804857
0.0086762485
0.0086717024
0.00866682
0.0086615722
0.0086559281
0.0086498581
0.0086433314
0.0086363252
0.008628817
0.0086207971
0.0086122876
0.0086033109
0.0085939657
0.0085843298
0.0085746488
0.0085651387
0.0085563175
0.0085476723
0.0085392366
0.0085311884
0.0085231983
0.0088379172
0.0088333672
0.0088269039
0.0088229296
0.0088163144
0.0088125719
0.0088091005
0.0088058725
0.0088020849
0.0087969626
0.0087942772
0.008791513
0.0087884764
0.0087842022
0.0087827121
0.0087786614
0.0087774566
0.0087742605
0.0087720972
0.0087698214
0.0087679916
0.0087662
0.0087646758
0.0087632948
0.0087620336
0.0087608586
0.0087597406
0.0087586597
0.008757603
0.00875656
0.0087555237
0.0087544889
0.0087534519
0.0087524102
0.0087513622
0.0087503066
0.0087492424
0.0087481691
0.0087470859
0.0087459922
0.0087448872
0.0087437702
0.0087426401
0.0087414958
0.0087403359
0.0087391589
0.008737963
0.0087367462
0.0087355061
0.0087342402
0.0087329456
0.0087316192
0.0087302575
0.0087288566
0.0087274125
0.0087259206
0.008724376
0.0087227734
0.0087211071
0.0087193706
0.0087175574
0.0087156599
0.0087136703
0.0087115799
0.0087093792
0.0087070582
0.0087046055
0.0087020092
0.0086992558
0.0086963306
0.0086932175
0.0086898985
0.0086863537
0.0086825606
0.0086784941
0.0086741259
0.0086694243
0.0086643538
0.0086588745
0.0086529454
0.0086465203
0.0086395598
0.0086320198
0.0086238609
0.0086151097
0.0086057381
0.0085959005
0.0085855826
0.0085751805
0.0085649832
0.0085562175
0.008547485
0.0085389785
0.0085312785
0.0085237045
0.0088358106
0.0088313159
0.0088261803
0.0088219258
0.0088169033
0.0088129814
0.008809315
0.0088058536
0.0088022951
0.0087983749
0.0087953544
0.0087923574
0.0087892803
0.0087860223
0.0087836378
0.0087806419
0.0087786513
0.0087760982
0.0087739038
0.0087717589
0.0087698524
0.0087680578
0.0087664514
0.0087649792
0.0087636184
0.0087623425
0.0087611299
0.0087599622
0.0087588274
0.0087577149
0.0087566169
0.0087555278
0.0087544431
0.0087533595
0.0087522747
0.0087511868
0.0087500943
0.0087489961
0.008747891
0.0087467782
0.0087456565
0.0087445249
0.0087433824
0.0087422276
0.0087410592
0.0087398755
0.0087386748
0.008737455
0.008736214
0.0087349493
0.0087336582
0.0087323377
0.0087309845
0.0087295952
0.0087281657
0.0087266921
0.0087251696
0.0087235934
0.0087219581
0.0087202581
0.008718487
0.0087166382
0.0087147043
0.0087126775
0.0087105491
0.0087083098
0.0087059493
0.0087034565
0.0087008188
0.0086980225
0.0086950522
0.0086918904
0.0086885174
0.0086849104
0.0086810431
0.0086768847
0.0086723993
0.0086675452
0.0086622726
0.0086565272
0.0086502459
0.0086433641
0.008635808
0.008627484
0.0086184591
0.0086085897
0.0085981581
0.0085867092
0.0085751881
0.0085636231
0.0085556324
0.0085471441
0.0085384222
0.0085314569
0.0085247081
0.0088341897
0.0088301781
0.0088257974
0.008821673
0.008817402
0.0088136098
0.0088100271
0.008806601
0.008803201
0.0087997437
0.0087966703
0.0087936785
0.0087906924
0.0087876968
0.0087850945
0.0087824293
0.008780168
0.0087777769
0.0087755762
0.0087734824
0.0087715536
0.0087697493
0.0087680907
0.0087665521
0.0087651158
0.0087637609
0.008762471
0.0087612305
0.0087600282
0.008758854
0.0087577006
0.0087565617
0.0087554326
0.0087543098
0.0087531901
0.0087520715
0.0087509519
0.0087498299
0.008748704
0.0087475729
0.0087464356
0.0087452907
0.0087441371
0.0087429733
0.0087417978
0.0087406092
0.0087394057
0.0087381852
0.0087369458
0.008735685
0.0087344003
0.008733089
0.008731748
0.008730374
0.0087289634
0.0087275125
0.0087260171
0.0087244726
0.0087228742
0.0087212168
0.0087194947
0.0087177019
0.0087158317
0.0087138771
0.0087118304
0.0087096831
0.0087074261
0.0087050493
0.0087025413
0.0086998895
0.0086970796
0.0086940951
0.008690917
0.0086875228
0.0086838857
0.0086799736
0.0086757465
0.0086711584
0.0086661487
0.0086606498
0.0086545769
0.0086478366
0.0086403127
0.0086318169
0.0086225778
0.0086121599
0.0086010886
0.0085881024
0.0085748684
0.0085600009
0.0085544613
0.0085461854
0.0085362647
0.0085307154
0.0085255229
0.0088326758
0.0088289713
0.0088250936
0.0088213061
0.0088174913
0.008813904
0.0088104642
0.0088071438
0.0088038848
0.008800663
0.0087976493
0.008794731
0.0087918722
0.0087890742
0.0087864782
0.0087839248
0.0087815886
0.0087792804
0.0087771085
0.0087750478
0.0087731178
0.0087713041
0.0087696111
0.0087680242
0.0087665302
0.0087651135
0.0087637609
0.0087624597
0.0087611996
0.0087599718
0.008758769
0.0087575852
0.0087564156
0.0087552564
0.0087541044
0.0087529569
0.0087518119
0.0087506674
0.008749522
0.0087483741
0.0087472223
0.0087460654
0.0087449019
0.0087437306
0.0087425498
0.008741358
0.0087401535
0.0087389345
0.0087376989
0.0087364446
0.0087351692
0.0087338701
0.0087325445
0.0087311894
0.0087298016
0.0087283777
0.0087269137
0.0087254058
0.0087238496
0.0087222405
0.0087205734
0.0087188431
0.0087170437
0.0087151691
0.0087132125
0.0087111666
0.0087090234
0.008706774
0.0087044085
0.0087019157
0.0086992828
0.0086964951
0.0086935348
0.0086903808
0.008687007
0.0086833814
0.0086794621
0.0086751992
0.0086705257
0.0086653592
0.0086595897
0.0086530905
0.008645699
0.0086369977
0.0086276562
0.0086164816
0.0086046973
0.008593912
0.0085767274
0.0085619955
0.0085581071
0.0085415724
0.0085306674
0.0085273677
0.0085245676
0.0088313294
0.0088279158
0.0088244019
0.0088209105
0.0088174226
0.0088140513
0.0088107796
0.0088075993
0.0088044895
0.0088014433
0.0087985257
0.0087956954
0.0087929376
0.0087902582
0.00878771
0.0087852395
0.0087829141
0.0087806633
0.0087785239
0.0087764882
0.0087745634
0.0087727428
0.0087710268
0.0087694047
0.0087678668
0.0087664018
0.0087649986
0.008763647
0.0087623381
0.0087610639
0.0087598177
0.008758594
0.0087573879
0.0087561956
0.0087550138
0.0087538398
0.0087526711
0.0087515059
0.0087503424
0.008749179
0.0087480142
0.0087468466
0.0087456748
0.0087444973
0.0087433127
0.0087421195
0.008740916
0.0087397005
0.008738471
0.0087372255
0.0087359619
0.0087346778
0.0087333706
0.0087320377
0.0087306762
0.0087292829
0.0087278545
0.0087263875
0.0087248781
0.0087233223
0.0087217156
0.0087200536
0.0087183313
0.0087165435
0.0087146844
0.0087127479
0.0087107274
0.0087086154
0.0087064037
0.008704083
0.0087016425
0.0086990696
0.0086963489
0.0086934619
0.0086903848
0.0086870879
0.0086835306
0.0086796624
0.0086754136
0.0086706872
0.0086653432
0.008659214
0.0086520368
0.0086426633
0.0086332531
0.0086197307
0.0086104723
0.0085844963
0.0085528216
0.0085551205
0.0088300915
0.0088269463
0.0088237279
0.0088204999
0.008817276
0.0088141129
0.0088110159
0.0088079871
0.008805021
0.0088021187
0.0087993066
0.0087965714
0.0087939083
0.0087913229
0.0087888378
0.0087864379
0.0087841481
0.0087819427
0.0087798345
0.0087778208
0.008775904
0.0087740806
0.0087723488
0.0087707013
0.0087691306
0.0087676278
0.0087661841
0.0087647912
0.0087634412
0.0087621274
0.0087608437
0.0087595847
0.0087583462
0.0087571241
0.0087559153
0.008754717
0.0087535268
0.0087523427
0.0087511627
0.0087499853
0.0087488089
0.008747632
0.0087464532
0.0087452712
0.0087440844
0.0087428914
0.0087416906
0.0087404804
0.008739259
0.0087380246
0.0087367752
0.0087355086
0.0087342226
0.0087329148
0.0087315826
0.0087302233
0.0087288341
0.0087274118
0.0087259532
0.0087244549
0.0087229133
0.0087213246
0.0087196846
0.0087179893
0.0087162339
0.0087144136
0.0087125233
0.0087105571
0.0087085088
0.0087063711
0.0087041359
0.0087017935
0.008699332
0.0086967367
0.0086939875
0.0086910619
0.008687922
0.0086845252
0.0086808029
0.0086766532
0.0086719184
0.0086664073
0.0086597011
0.0086496943
0.0086452526
0.0086286831
0.0086481742
0.0088289387
0.0088260357
0.0088230691
0.0088200776
0.0088170813
0.0088141141
0.0088111877
0.008808309
0.008805481
0.0088027083
0.0088000037
0.0087973652
0.0087947933
0.0087922934
0.0087898764
0.0087875396
0.0087852935
0.008783129
0.0087810508
0.0087790581
0.0087771516
0.0087753288
0.0087735873
0.0087719219
0.0087703266
0.0087687945
0.0087673186
0.0087658919
0.0087645078
0.0087631605
0.0087618444
0.0087605548
0.0087592876
0.008758039
0.0087568061
0.008755586
0.0087543764
0.0087531751
0.0087519804
0.0087507905
0.008749604
0.0087484193
0.008747235
0.0087460498
0.0087448623
0.0087436711
0.0087424747
0.0087412716
0.0087400602
0.0087388388
0.0087376056
0.0087363588
0.0087350964
0.0087338163
0.0087325162
0.0087311939
0.0087298468
0.0087284724
0.0087270681
0.008725631
0.0087241583
0.0087226468
0.0087210936
0.0087194952
0.0087178485
0.0087161497
0.0087143953
0.0087125814
0.0087107037
0.0087087575
0.0087067378
0.0087046382
0.0087024514
0.0087001679
0.0086977741
0.0086952565
0.008692588
0.0086897382
0.0086866541
0.0086832543
0.0086794126
0.0086748462
0.0086694057
0.0086609656
0.0086501358
0.008636615
0.0088278638
0.0088251807
0.008822437
0.0088196584
0.0088168641
0.0088140781
0.0088113136
0.0088085801
0.0088058844
0.0088032328
0.008800634
0.0087980908
0.0087956062
0.0087931853
0.0087908352
0.0087885573
0.0087863566
0.0087842309
0.0087821823
0.0087802106
0.0087783159
0.0087764965
0.0087747501
0.0087730727
0.0087714595
0.0087699051
0.0087684037
0.0087669497
0.0087655375
0.008764162
0.0087628183
0.0087615023
0.00876021
0.0087589382
0.0087576839
0.0087564444
0.0087552174
0.0087540009
0.0087527932
0.0087515924
0.0087503972
0.0087492061
0.0087480178
0.0087468308
0.008745644
0.008744456
0.0087432655
0.0087420711
0.0087408714
0.0087396648
0.0087384498
0.0087372248
0.0087359881
0.0087347378
0.0087334721
0.0087321892
0.0087308868
0.0087295631
0.0087282158
0.0087268428
0.008725442
0.008724011
0.0087225476
0.0087210497
0.0087195151
0.0087179416
0.0087163271
0.0087146697
0.0087129673
0.0087112181
0.0087094201
0.0087075713
0.0087056693
0.0087037112
0.0087016922
0.0086996085
0.0086974525
0.0086952102
0.0086928592
0.0086903864
0.0086877093
0.0086842397
0.0086821868
0.0086898475
0.0087164301
0.0088268664
0.0088243838
0.0088218394
0.0088192526
0.0088166412
0.0088140224
0.0088114097
0.008808814
0.0088062435
0.0088037058
0.0088012087
0.0087987569
0.0087963553
0.0087940087
0.0087917228
0.0087895001
0.0087873443
0.0087852563
0.0087832368
0.0087812866
0.0087794054
0.008777592
0.0087758444
0.0087741596
0.0087725337
0.0087709626
0.0087694414