/*--------------------------------*- C++ -*----------------------------------*\
| =========                 |                                                 |
| \\      /  F ield         | OpenFOAM: The Open Source CFD Toolbox           |
|  \\    /   O peration     | Version:  2412                                  |
|   \\  /    A nd           | Website:  www.openfoam.com                      |
|    \\/     M anipulation  |                                                 |
\*---------------------------------------------------------------------------*/
FoamFile
{
    version     2.0;
    format      ascii;
    arch        "LSB;label=32;scalar=64";
    class       surfaceScalarField;
    location    "15174";
    object      phi;
}
// * * * * * * * * * * * * * * * * * * * * * * * * * * * * * * * * * * * * * //

dimensions      [0 3 -1 0 0 0 0];

oriented        oriented;

internalField   nonuniform List<scalar> 
111847
(
2.7595286e-24
-2.1269786e-25
2.7934279e-24
-1.6351424e-25
2.7579459e-24
-1.5658213e-25
2.7045225e-24
-1.9671138e-25
2.6396895e-24
-2.4327449e-25
2.5711794e-24
-2.9064409e-25
2.5005361e-24
-3.3181796e-25
-3.5376758e-25
3.1007755e-24
2.5769481e-24
3.6031312e-25
2.5203853e-24
-1.0001932e-25
2.4676769e-24
-1.4400297e-25
2.4010818e-24
-1.766794e-25
2.3203163e-24
-2.0987862e-25
2.2139072e-24
-2.2540887e-25
-2.3576063e-25
2.294341e-24
-6.3128415e-26
2.2933932e-24
-9.9071486e-26
2.2703854e-24
-1.2099517e-25
2.2257232e-24
-1.3201717e-25
2.1632491e-24
-1.4740455e-25
2.081689e-24
-1.4384878e-25
1.7610139e-25
2.0870918e-24
-1.9691043e-25
2.1305519e-24
-1.4253166e-25
2.1280033e-24
-1.1844655e-25
2.1112426e-24
-1.1525646e-25
2.0753888e-24
-1.1155078e-25
2.0393286e-24
-1.0778852e-25
2.335743e-24
-1.20313e-25
-1.6524893e-25
2.3866848e-24
2.0416645e-24
2.0248865e-25
2.0420469e-24
-1.1882896e-25
2.0452809e-24
-1.1849048e-25
2.0301828e-24
-9.6452705e-26
1.9973429e-24
-7.4948553e-26
1.9182736e-24
-4.1243743e-26
3.4749453e-25
1.9516244e-24
-1.5743812e-25
1.9919557e-24
-1.591602e-25
2.0235339e-24
-1.5006872e-25
2.0446907e-24
-1.1760949e-25
2.0493851e-24
-7.9642991e-26
2.0491804e-24
-4.1038979e-26
2.4282345e-24
-3.1559562e-26
-7.529456e-26
1.9175376e-24
-2.5098314e-25
1.9940388e-24
-2.356614e-25
2.0526455e-24
-2.0867544e-25
2.1032125e-24
-1.6817654e-25
2.1346657e-24
-1.1109621e-25
2.1382385e-24
-4.4611719e-26
2.0681769e-24
3.8502044e-26
4.8772596e-25
2.0135851e-24
-2.895603e-25
2.0692067e-24
-2.9128307e-25
2.1322703e-24
-2.7173898e-25
2.2009352e-24
-2.3684147e-25
2.2717441e-24
-1.8190507e-25
2.3498218e-24
-1.2268942e-25
2.4570966e-24
-6.8772744e-26
3.0215691e-24
-7.674648e-26
2.1789386e-25
2.1151254e-24
-3.4194568e-25
2.1744413e-24
-3.5059897e-25
2.2429001e-24
-3.4019779e-25
2.3240316e-24
-3.1797297e-25
2.4182492e-24
-2.7612265e-25
2.5280294e-24
-2.3246965e-25
2.6504065e-24
-1.9114979e-25
2.7571635e-24
-1.835035e-25
3.2216018e-24
-2.4654436e-25
1.8562302e-25
2.2343852e-24
-4.0279417e-25
2.2988111e-24
-4.1502484e-25
2.3715506e-24
-4.1293725e-25
2.4588398e-24
-4.0526215e-25
2.5655327e-24
-3.8281564e-25
2.685543e-24
-3.5247992e-25
2.8136984e-24
-3.1930518e-25
2.9242602e-24
-2.9406531e-25
2.9858238e-24
-3.0810799e-25
3.5242343e-24
-3.527874e-25
7.8433371e-26
2.3704998e-24
-4.7547465e-25
2.4333838e-24
-4.7790881e-25
2.5079744e-24
-4.875278e-25
2.6009415e-24
-4.9822929e-25
2.713354e-24
-4.9522815e-25
2.836694e-24
-4.758199e-25
2.9697263e-24
-4.5233747e-25
3.0938722e-24
-4.1821125e-25
3.1828923e-24
-3.9712809e-25
3.2123114e-24
-3.8220651e-25
3.657426e-24
-3.6668115e-25
2.6941538e-25
2.5296424e-24
-4.676928e-25
2.5567529e-24
-5.0501934e-25
2.6352339e-24
-5.6600873e-25
2.7413394e-24
-6.0433481e-25
2.8607965e-24
-6.1468523e-25
2.991141e-24
-6.061644e-25
3.1264492e-24
-5.8764572e-25
3.2670009e-24
-5.5876295e-25
3.4002236e-24
-5.3035076e-25
3.5229261e-24
-5.0490903e-25
3.6562373e-24
-4.9999238e-25
4.4902852e-24
-5.6463242e-25
3.5314433e-24
-1.0758643e-24
-2.4467269e-25
2.46874e-24
-4.5766201e-25
2.5829223e-24
-6.1920167e-25
2.7319234e-24
-7.150098e-25
2.8765914e-24
-7.4900286e-25
3.0128618e-24
-7.5095558e-25
3.1468769e-24
-7.4017954e-25
3.2839844e-24
-7.2475326e-25
3.4290156e-24
-7.037941e-25
3.5830007e-24
-6.8433588e-25
3.7469176e-24
-6.6882595e-25
3.9262476e-24
-6.7932232e-25
4.1166245e-24
-7.5500939e-25
4.0071859e-24
-9.6642573e-25
4.7243513e-24
-9.6183807e-25
3.6922898e-24
-1.2755451e-24
-2.3961821e-25
2.7521489e-24
2.635871e-24
-5.0292367e-25
2.8459626e-24
-9.2510141e-25
3.0229287e-24
-9.2596902e-25
3.173648e-24
-9.0167484e-25
3.3094607e-24
-8.7599224e-25
3.4420515e-24
-8.5734406e-25
3.5811928e-24
-8.429354e-25
3.7296845e-24
-8.3282754e-25
3.8897727e-24
-8.2891415e-25
4.052687e-24
-8.422366e-25
4.1897223e-24
-8.9204478e-25
4.212382e-24
-9.8908539e-25
4.2923409e-24
-1.0417969e-24
4.1622567e-24
-1.1454609e-24
4.9639778e-24
-1.0413392e-24
3.8918041e-24
-1.2409048e-24
-1.3725981e-25
2.8674093e-24
-1.0097089e-24
3.0436004e-24
-1.1012925e-24
3.207752e-24
-1.0901207e-24
3.3525377e-24
-1.0464606e-24
3.4824252e-24
-1.0058797e-24
3.6060086e-24
-9.8092753e-25
3.7325964e-24
-9.6952322e-25
3.8643849e-24
-9.6461605e-25
4.0036029e-24
-9.6813209e-25
4.1423324e-24
-9.8096608e-25
4.2608879e-24
-1.0106003e-24
4.3300286e-24
-1.058226e-24
4.3900269e-24
-1.1017952e-24
4.389407e-24
-1.144841e-24
4.4756001e-24
-1.1275323e-24
4.3910659e-24
-1.1563706e-24
5.2935075e-24
-1.0397014e-24
4.1260338e-24
-1.2776422e-24
-9.3702663e-26
3.1830978e-24
-1.1078376e-24
3.2984595e-24
-1.2166543e-24
3.4234789e-24
-1.2151401e-24
3.5458432e-24
-1.1688249e-24
3.6623278e-24
-1.1223642e-24
3.7750487e-24
-1.0936484e-24
3.8877568e-24
-1.0822313e-24
4.0042089e-24
-1.0810681e-24
4.122704e-24
-1.0866272e-24
4.2399459e-24
-1.098208e-24
4.3460253e-24
-1.1166797e-24
4.4295367e-24
-1.1417375e-24
4.4960479e-24
-1.1683064e-24
4.5391531e-24
-1.1879463e-24
4.5996975e-24
-1.1880767e-24
4.6315938e-24
-1.188267e-24
4.7475158e-24
-1.1556234e-24
4.6525926e-24
-1.182719e-24
5.6127867e-24
-1.0538966e-24
4.3643406e-24
-1.2961256e-24
-3.1500462e-26
3.4395233e-24
-1.2008676e-24
3.538381e-24
-1.315512e-24
3.6384163e-24
-1.3151754e-24
3.7400762e-24
-1.2704847e-24
3.8426087e-24
-1.2248967e-24
3.9455863e-24
-1.1966261e-24
4.0488181e-24
-1.1854631e-24
4.1529254e-24
-1.1851755e-24
4.2567491e-24
-1.1904509e-24
4.3585508e-24
-1.2000098e-24
4.45421e-24
-1.2123389e-24
4.5389819e-24
-1.2265093e-24
4.6116585e-24
-1.240983e-24
4.6736163e-24
-1.2499041e-24
4.7362323e-24
-1.2506927e-24
4.7930549e-24
-1.2450896e-24
4.8667657e-24
-1.2293342e-24
4.9024292e-24
-1.2183824e-24
5.0244756e-24
-1.1759431e-24
4.9234858e-24
-1.1951358e-24
5.9469965e-24
-1.0550111e-24
4.6102445e-24
-1.3135183e-24
3.486124e-26
3.6986156e-24
-2.1612624e-24
3.7794587e-24
-1.396355e-24
3.8521007e-24
-1.3878174e-24
3.9319061e-24
-1.3502902e-24
4.0205445e-24
-1.313535e-24
4.1146429e-24
-1.2907245e-24
4.2107451e-24
-1.2815653e-24
4.3068185e-24
-1.2812488e-24
4.4019075e-24
-1.2855399e-24
4.4942664e-24
-1.2923686e-24
4.5823961e-24
-1.3004686e-24
4.6646415e-24
-1.3087547e-24
4.7395182e-24
-1.3158598e-24
4.8086992e-24
-1.319085e-24
4.8754493e-24
-1.3174428e-24
4.9403539e-24
-1.3099942e-24
5.0078781e-24
-1.2968585e-24
5.0690112e-24
-1.2795154e-24
5.1468205e-24
-1.2537524e-24
5.1852206e-24
-1.2335359e-24
5.3145828e-24
-1.1843734e-24
5.2036055e-24
-1.202541e-24
6.2914785e-24
-1.0530116e-24
4.862945e-24
-1.3290809e-24
1.0035599e-25
5.0431264e-24
-8.4689913e-25
4.0623874e-24
-1.1805235e-24
4.0311284e-24
-1.365096e-24
4.0557939e-24
-1.4124829e-24
4.1145194e-24
-1.4090156e-24
4.1927199e-24
-1.3917355e-24
4.2803342e-24
-1.3783388e-24
4.3713804e-24
-1.3726115e-24
4.4623839e-24
-1.3722524e-24
4.5517914e-24
-1.3749474e-24
4.6386702e-24
-1.3792474e-24
4.7221288e-24
-1.3839272e-24
4.8014617e-24
-1.3880876e-24
4.8764397e-24
-1.3908377e-24
4.9477112e-24
-1.3903566e-24
5.0165887e-24
-1.3863203e-24
5.0843027e-24
-1.3777081e-24
5.1521396e-24
-1.3646954e-24
5.2194716e-24
-1.3468475e-24
5.2904502e-24
-1.3247309e-24
5.3556996e-24
-1.2987853e-24
5.438277e-24
-1.2669507e-24
5.4767956e-24
-1.2410596e-24
5.6099402e-24
-1.1861562e-24
5.4792576e-24
-1.1983983e-24
6.6123407e-24
-1.032727e-24
4.9980308e-24
-1.2630298e-24
3.4875404e-25
4.0203112e-24
-1.266013e-24
4.1317672e-24
-1.2919796e-24
4.1647444e-24
-1.3980732e-24
4.2120918e-24
-1.4598303e-24
4.277767e-24
-1.4746908e-24
4.3563497e-24
-1.4703182e-24
4.441762e-24
-1.4637512e-24
4.5294241e-24
-1.4602735e-24
4.6168418e-24
-1.45967e-24
4.7025205e-24
-1.4606261e-24
4.7857817e-24
-1.4625086e-24
4.86624e-24
-1.4643855e-24
4.9435928e-24
-1.4654404e-24
5.0177261e-24
-1.464971e-24
5.0893222e-24
-1.4619527e-24
5.1589548e-24
-1.4559528e-24
5.227604e-24
-1.4463574e-24
5.2959443e-24
-1.4330357e-24
5.3648607e-24
-1.4157639e-24
5.4350989e-24
-1.3949691e-24
5.506379e-24
-1.3700653e-24
5.5816882e-24
-1.34226e-24
5.6507349e-24
-1.3101062e-24
5.7358899e-24
-1.2713113e-24
5.768631e-24
-1.2311393e-24
5.8897768e-24
-1.1538728e-24
5.7342476e-24
-1.1075007e-24
6.97697e-24
-8.9396828e-25
5.2826694e-24
-1.1012495e-24
5.5500461e-25
3.8975863e-24
-1.4636962e-24
4.0994924e-24
-1.4938857e-24
4.2379669e-24
-1.5365477e-24
4.3394566e-24
-1.56132e-24
4.4277019e-24
-1.5629362e-24
4.513368e-24
-1.5559843e-24
4.5991453e-24
-1.5495284e-24
4.6847002e-24
-1.5458285e-24
4.7691564e-24
-1.5441262e-24
4.8520482e-24
-1.5435179e-24
4.932615e-24
-1.5430754e-24
5.0108548e-24
-1.5426254e-24
5.0866646e-24
-1.5412502e-24
5.1600476e-24
-1.5383539e-24
5.2314178e-24
-1.533323e-24
5.3012433e-24
-1.5257783e-24
5.370103e-24
-1.5152171e-24
5.4387784e-24
-1.5017111e-24
5.5078888e-24
-1.4848743e-24
5.5781442e-24
-1.4652245e-24
5.6502319e-24
-1.442153e-24
5.7246823e-24
-1.4167104e-24
5.801035e-24
-1.3864589e-24
5.8818665e-24
-1.3521428e-24
5.9568083e-24
-1.3060812e-24
6.0506448e-24
-1.2477093e-24
6.1096508e-24
-1.1665067e-24
6.2892387e-24
-1.0735561e-24
6.2203057e-24
-1.0323166e-24
7.6762469e-24
-9.0093647e-25
6.3891306e-24
-1.622235e-24
5.3569343e-24
-2.2195206e-24
3.766243e-25
3.9565311e-24
-1.5890533e-24
4.1592869e-24
-1.6966416e-24
4.3364252e-24
-1.7136859e-24
4.470499e-24
-1.6953939e-24
4.5760667e-24
-1.6685039e-24
4.6677491e-24
-1.6476666e-24
4.75389e-24
-1.6356694e-24
4.8374948e-24
-1.6294333e-24
4.9194125e-24
-1.6260439e-24
4.999534e-24
-1.6236394e-24
5.0779592e-24
-1.6215005e-24
5.1543154e-24
-1.6189816e-24
5.2287173e-24
-1.6156521e-24
5.3012964e-24
-1.610933e-24
5.3723293e-24
-1.6043558e-24
5.4421719e-24
-1.595621e-24
5.5112828e-24
-1.584328e-24
5.58009e-24
-1.5705182e-24
5.6493197e-24
-1.554104e-24
5.7193771e-24
-1.535282e-24
5.7912084e-24
-1.5139843e-24
5.8648868e-24
-1.4903888e-24
5.941991e-24
-1.463563e-24
6.0232751e-24
-1.4334269e-24
6.1110621e-24
-1.3938683e-24
6.2102185e-24
-1.3468656e-24
6.3223759e-24
-1.2786641e-24
6.4701955e-24
-1.2213757e-24
6.6085054e-24
-1.1706265e-24
6.9056406e-24
-1.1980716e-24
6.7655859e-24
-1.4821803e-24
6.1678221e-24
-1.6217568e-24
7.6444444e-24
-1.0999979e-24
5.8026755e-24
-1.1898276e-24
6.8401978e-25
3.9933052e-24
-1.9155567e-24
4.280822e-24
-1.9841584e-24
4.4817928e-24
-1.9146567e-24
4.6235443e-24
-1.8371454e-24
4.7312882e-24
-1.7762477e-24
4.8224582e-24
-1.7388366e-24
4.906605e-24
-1.7198162e-24
4.9877899e-24
-1.7106183e-24
5.0670506e-24
-1.7053046e-24
5.1449177e-24
-1.7015065e-24
5.2211839e-24
-1.6977667e-24
5.2958705e-24
-1.6936682e-24
5.3690111e-24
-1.6887928e-24
5.4407388e-24
-1.6826607e-24
5.5112851e-24
-1.6749021e-24
5.5809597e-24
-1.6652956e-24
5.6502004e-24
-1.6535687e-24
5.7192631e-24
-1.639581e-24
5.7886947e-24
-1.6235355e-24
5.858839e-24
-1.6054264e-24
5.9301112e-24
-1.5852565e-24
6.0031976e-24
-1.5634751e-24
6.0790814e-24
-1.5394469e-24
6.1587981e-24
-1.5131436e-24
6.2464267e-24
-1.4814968e-24
6.3444178e-24
-1.4448567e-24
6.4616905e-24
-1.3959368e-24
6.5952407e-24
-1.3549258e-24
6.7411529e-24
-1.3165387e-24
6.884294e-24
-1.3412127e-24
6.8346601e-24
-1.4325464e-24
6.6472717e-24
-1.4343684e-24
6.7699563e-24
-1.2226824e-24
6.6529917e-24
-1.072863e-24
8.1646118e-24
-8.2760024e-25
6.1255183e-24
-1.0903372e-24
8.737903e-25
4.4074372e-24
-3.2729817e-24
4.5669874e-24
-2.1437086e-24
4.6958133e-24
-2.0434826e-24
4.8023561e-24
-1.9436881e-24
4.8938768e-24
-1.8677685e-24
4.9774836e-24
-1.8224434e-24
5.0573915e-24
-1.7997242e-24
5.1353438e-24
-1.7885705e-24
5.2121258e-24
-1.7820866e-24
5.2876562e-24
-1.7770369e-24
5.361924e-24
-1.7720345e-24
5.4349549e-24
-1.7666991e-24
5.5068114e-24
-1.7606493e-24
5.5776277e-24
-1.7534771e-24
5.6476106e-24
-1.744885e-24
5.7170275e-24
-1.7347125e-24
5.7861791e-24
-1.7227203e-24
5.8554384e-24
-1.7088402e-24
5.9249819e-24
-1.693079e-24
5.9952906e-24
-1.6757351e-24
6.0665875e-24
-1.6565534e-24
6.1392841e-24
-1.6361717e-24
6.2139698e-24
-1.6141326e-24
6.2916073e-24
-1.5907811e-24
6.3747264e-24
-1.5646159e-24
6.4657074e-24
-1.5358377e-24
6.5706843e-24
-1.5009138e-24
6.6851134e-24
-1.4693549e-24
6.8075089e-24
-1.4389343e-24
6.9051108e-24
-1.4388147e-24
6.9232727e-24
-1.4507083e-24
6.9067711e-24
-1.4178668e-24
6.989908e-24
-1.3058193e-24
7.0873735e-24
-1.1703285e-24
7.316998e-24
-1.0572247e-24
7.2365698e-24
-1.009909e-24
8.9738415e-24
-8.6348133e-25
7.4439886e-24
-1.7198805e-24
6.2066123e-24
-2.4090641e-24
6.348499e-25
6.3483272e-24
-1.2810549e-24
4.9296363e-24
-1.854291e-24
4.8753323e-24
-2.0894045e-24
4.9154121e-24
-2.0835624e-24
4.981857e-24
-2.0101331e-24
5.0550078e-24
-1.9409192e-24
5.1299444e-24
-1.89738e-24
5.2051963e-24
-1.874976e-24
5.2802068e-24
-1.8635811e-24
5.3543469e-24
-1.8562266e-24
5.4275018e-24
-1.8501918e-24
5.4997967e-24
-1.8443294e-24
5.57116e-24
-1.8380625e-24
5.6416742e-24
-1.8311634e-24
5.7114731e-24
-1.823276e-24
5.7807447e-24
-1.8141566e-24
5.8497236e-24
-1.8036914e-24
5.9186696e-24
-1.7916663e-24
5.9878512e-24
-1.7780217e-24
6.0576211e-24
-1.762849e-24
6.1280326e-24
-1.7461466e-24
6.1995547e-24
-1.7280755e-24
6.2720999e-24
-1.7087169e-24
6.3462311e-24
-1.6882638e-24
6.4224435e-24
-1.6669935e-24
6.5019961e-24
-1.6441685e-24
6.5861048e-24
-1.6199464e-24
6.6785101e-24
-1.593319e-24
6.7763088e-24
-1.5671536e-24
6.878612e-24
-1.5412375e-24
6.9661356e-24
-1.5263383e-24
7.0263737e-24
-1.5109464e-24
7.0840753e-24
-1.4755684e-24
7.1852104e-24
-1.4069544e-24
7.3289438e-24
-1.3140618e-24
7.5162393e-24
-1.2445202e-24
7.6904113e-24
-1.184081e-24
8.0491537e-24
-1.2222237e-24
7.8849316e-24
-1.5556584e-24
7.1880694e-24
-1.7122019e-24
8.9307876e-24
-1.1078681e-24
6.7364242e-24
-1.2200638e-24
9.7110301e-25
4.4817349e-24
-2.1487291e-24
4.8733641e-24
-2.2459201e-24
5.0079908e-24
-2.2240313e-24
5.0810536e-24
-2.1566252e-24
5.1435057e-24
-2.0725852e-24
5.2087815e-24
-2.006195e-24
5.278274e-24
-1.9668724e-24
5.3499015e-24
-1.9466036e-24
5.4217871e-24
-1.9354666e-24
5.4934599e-24
-1.9278995e-24
5.5644672e-24
-1.9211991e-24
5.6347655e-24
-1.9146277e-24
5.7044114e-24
-1.9077084e-24
5.7734981e-24
-1.9002501e-24
5.8421571e-24
-1.891935e-24
5.9105606e-24
-1.8825601e-24
5.9789176e-24
-1.8720483e-24
6.0474557e-24
-1.8602044e-24
6.1164102e-24
-1.8469762e-24
6.1860127e-24
-1.8324515e-24
6.2564714e-24
-1.8166053e-24
6.3279374e-24
-1.7995415e-24
6.400698e-24
-1.7814775e-24
6.4748223e-24
-1.7623881e-24
6.5504816e-24
-1.7426528e-24
6.628283e-24
-1.7219699e-24
6.7089511e-24
-1.7006145e-24
6.7935917e-24
-1.6779596e-24
6.8818288e-24
-1.6553907e-24
6.9728916e-24
-1.6323003e-24
7.0588806e-24
-1.6123272e-24
7.1386565e-24
-1.5907224e-24
7.2238734e-24
-1.5607853e-24
7.3338392e-24
-1.5169202e-24
7.4783316e-24
-1.4585542e-24
7.6462496e-24
-1.4124382e-24
7.8312608e-24
-1.3690922e-24
8.0118992e-24
-1.4028621e-24
7.9648873e-24
-1.5086465e-24
7.7607479e-24
-1.5080625e-24
7.9129626e-24
-1.2600828e-24
7.7710681e-24
-1.0781694e-24
9.5424536e-24
-8.002824e-25
7.08624e-24
-1.107778e-24
1.2134705e-24
4.8968015e-24
-3.7296258e-24
5.0796295e-24
-2.4287481e-24
5.1778293e-24
-2.3222311e-24
5.2392709e-24
-2.2180667e-24
5.2950364e-24
-2.1283508e-24
5.3560067e-24
-2.0671653e-24
5.4222188e-24
-2.0330845e-24
5.4909584e-24
-2.0153432e-24
5.5603054e-24
-2.0048137e-24
5.6294009e-24
-1.996995e-24
5.6980687e-24
-1.9898668e-24
5.7663061e-24
-1.9828651e-24
5.8341497e-24
-1.9755519e-24
5.9016965e-24
-1.9677969e-24
5.9690733e-24
-1.9593118e-24
6.0364385e-24
-1.9499254e-24
6.1039802e-24
-1.93959e-24
6.1719006e-24
-1.9281249e-24
6.2404087e-24
-1.9154844e-24
6.3097121e-24
-1.9017549e-24
6.38e-24
-1.8868931e-24
6.4514373e-24
-1.8709789e-24
6.524162e-24
-1.8542022e-24
6.598373e-24
-1.8365992e-24
6.673941e-24
-1.8182207e-24
6.7513527e-24
-1.7993816e-24
6.8307134e-24
-1.7799752e-24
6.9126907e-24
-1.7599369e-24
6.996748e-24
-1.7394481e-24
7.0833292e-24
-1.7188814e-24
7.1696529e-24
-1.6986509e-24
7.2563724e-24
-1.6774418e-24
7.3489567e-24
-1.6533696e-24
7.4556278e-24
-1.6235913e-24
7.5844278e-24
-1.5873542e-24
7.7276049e-24
-1.5556153e-24
7.8836682e-24
-1.5251555e-24
8.011853e-24
-1.5310469e-24
8.0502655e-24
-1.547059e-24
8.0517623e-24
-1.5095593e-24
8.1681252e-24
-1.3764457e-24
8.2976457e-24
-1.2076899e-24
8.5752591e-24
-1.0778958e-24
8.4694302e-24
-1.0019491e-24
1.0510677e-23
-8.2777642e-25
8.7119067e-24
-1.8335605e-24
7.1693895e-24
-2.5671316e-24
9.6418415e-25
7.072915e-24
-2.8923242e-24
5.4957252e-24
-2.1524361e-24
5.3917093e-24
-2.3247321e-24
5.3796426e-24
-2.3101645e-24
5.4018881e-24
-2.2403122e-24
5.4442683e-24
-2.170731e-24
5.5000791e-24
-2.1229761e-24
5.5630526e-24
-2.096058e-24
5.628788e-24
-2.0810786e-24
5.6953252e-24
-2.0713508e-24
5.7617519e-24
-2.0634218e-24
5.8280556e-24
-2.0561705e-24
5.89414e-24
-2.0489496e-24
5.9600724e-24
-2.0414843e-24
6.025948e-24
-2.0336726e-24
6.0918868e-24
-2.0252506e-24
6.1580346e-24
-2.0160732e-24
6.2245617e-24
-2.0061171e-24
6.2916502e-24
-1.9952134e-24
6.3594883e-24
-1.9833225e-24
6.4282647e-24
-1.9705312e-24
6.498154e-24
-1.9567824e-24
6.5693133e-24
-1.9421381e-24
6.6418798e-24
-1.9267686e-24
6.7159625e-24
-1.910682e-24
6.79172e-24
-1.8939783e-24
6.8691744e-24
-1.876836e-24
6.9484505e-24
-1.8592512e-24
7.0296191e-24
-1.8411056e-24
7.1131716e-24
-1.8230006e-24
7.1985492e-24
-1.804259e-24
7.2855729e-24
-1.7856747e-24
7.3747039e-24
-1.7665728e-24
7.4679952e-24
-1.7466609e-24
7.5693156e-24
-1.7249117e-24
7.6826079e-24
-1.7006466e-24
7.8047794e-24
-1.6777868e-24
7.9349587e-24
-1.6553348e-24
8.0499948e-24
-1.646083e-24
8.1375158e-24
-1.63458e-24
8.2263099e-24
-1.5983533e-24
8.3693393e-24
-1.5194751e-24
8.5665448e-24
-1.4048953e-24
8.8119442e-24
-1.3232952e-24
9.0410313e-24
-1.2310361e-24
9.4865192e-24
-1.2732644e-24
9.2897434e-24
-1.6367848e-24
8.4892205e-24
-1.7666087e-24
1.0507527e-23
-1.0541226e-24
7.8493267e-24
-1.190926e-24
1.3839133e-24
6.5723541e-24
-1.9208417e-24
5.6001905e-24
-1.9201606e-24
5.5871081e-24
-2.1393538e-24
5.5483924e-24
-2.2860164e-24
5.5346047e-24
-2.2963767e-24
5.549313e-24
-2.2550205e-24
5.5873757e-24
-2.2087937e-24
5.6403274e-24
-2.1759278e-24
5.7003609e-24
-2.1560915e-24
5.7631406e-24
-2.1438582e-24
5.8268252e-24
-2.1350354e-24
5.8906339e-24
-2.1272305e-24
5.9544454e-24
-2.1199819e-24
6.0182689e-24
-2.1127731e-24
6.082167e-24
-2.1053823e-24
6.1462291e-24
-2.0977347e-24
6.2105667e-24
-2.0895881e-24
6.2753135e-24
-2.08082e-24
6.3406248e-24
-2.0714284e-24
6.4066659e-24
-2.0612545e-24
6.4736084e-24
-2.050265e-24
6.541626e-24
-2.0385489e-24
6.6108825e-24
-2.0260389e-24
6.6815288e-24
-2.0127845e-24
6.753703e-24
-1.9989428e-24
6.8275216e-24
-1.9845006e-24
6.9030837e-24
-1.9695403e-24
6.9804769e-24
-1.9542292e-24
7.0597758e-24
-1.9385502e-24
7.1412366e-24
-1.9225664e-24
7.2245425e-24
-1.9063064e-24
7.3103436e-24
-1.8900601e-24
7.3981392e-24
-1.8734702e-24
7.4884974e-24
-1.856931e-24
7.5820653e-24
-1.8402288e-24
7.6800847e-24
-1.8229312e-24
7.7846089e-24
-1.8051708e-24
7.8945059e-24
-1.7876838e-24
8.0097433e-24
-1.7705721e-24
8.1211891e-24
-1.7575289e-24
8.2284852e-24
-1.7418761e-24
8.3462495e-24
-1.7161176e-24
8.4979209e-24
-1.6711466e-24
8.6978163e-24
-1.6047907e-24
8.927918e-24
-1.5533969e-24
9.1871192e-24
-1.4902373e-24
9.4405368e-24
-1.5266819e-24
9.4250846e-24
-1.6213326e-24
9.2488674e-24
-1.5903915e-24
9.4872493e-24
-1.2925045e-24
9.3978982e-24
-1.1015748e-24
1.1662162e-23
-8.8035029e-25
9.5524625e-24
-1.9571229e-24
7.5916327e-24
-2.2850655e-24
1.7665307e-24
4.8512852e-24
-4.0436159e-24
5.3869313e-24
-2.4558068e-24
5.5934363e-24
-2.3458588e-24
5.6382175e-24
-2.3307976e-24
5.6552696e-24
-2.3134288e-24
5.6819704e-24
-2.2817213e-24
5.723712e-24
-2.2505352e-24
5.7761451e-24
-2.2283609e-24
5.8339138e-24
-2.2138602e-24
5.8938868e-24
-2.2038312e-24
5.954511e-24
-2.1956596e-24
6.0155178e-24
-2.1882374e-24
6.0767273e-24
-2.1811915e-24
6.1381686e-24
-2.1742145e-24
6.1998956e-24
-2.1671093e-24
6.2619897e-24
-2.1598288e-24
6.3245525e-24
-2.152151e-24
6.3877065e-24
-2.1439739e-24
6.4515936e-24
-2.1353155e-24
6.5163649e-24
-2.1260258e-24
6.5821783e-24
-2.1160784e-24
6.6491957e-24
-2.1055662e-24
6.7175719e-24
-2.0944151e-24
6.7874536e-24
-2.0826662e-24
6.8589793e-24
-2.0704685e-24
6.9322718e-24
-2.0577931e-24
7.0074415e-24
-2.04471e-24
7.0845922e-24
-2.0313799e-24
7.1638174e-24
-2.0177754e-24
7.2452075e-24
-2.0039565e-24
7.3289683e-24
-1.9900672e-24
7.4149774e-24
-1.9760692e-24
7.503412e-24
-1.9619049e-24
7.5945433e-24
-1.9480623e-24
7.6883913e-24
-1.9340768e-24
7.7857707e-24
-1.9203105e-24
7.8869284e-24
-1.9063286e-24
7.9921771e-24
-1.8929325e-24
8.1012759e-24
-1.8796709e-24
8.2113146e-24
-1.8675676e-24
8.3241848e-24
-1.8547464e-24
8.4462499e-24
-1.8381826e-24
8.5891499e-24
-1.8140466e-24
8.7644374e-24
-1.7800782e-24
8.9615036e-24
-1.7504632e-24
9.1850657e-24
-1.7137994e-24
9.3804e-24
-1.7220162e-24
9.4838383e-24
-1.7247709e-24
9.5613273e-24
-1.6678805e-24
9.782609e-24
-1.5137861e-24
1.003903e-23
-1.3579962e-24
1.0526904e-23
-1.3682235e-24
1.0260691e-23
-1.6909104e-24
9.6190383e-24
-1.6434128e-24
1.2310472e-23
-9.2490257e-25
1.0627066e-23
-2.0326941e-24
9.5480806e-24
-3.1921052e-24
7.9228242e-24
-2.6768305e-24
1.8112833e-24
7.2694052e-24
-3.5940427e-24
5.662404e-24
-2.4366148e-24
5.6519654e-24
-2.4453681e-24
5.7089041e-24
-2.4027975e-24
5.7488734e-24
-2.3707669e-24
5.7780905e-24
-2.3426459e-24
5.8124421e-24
-2.3160729e-24
5.8569413e-24
-2.2950345e-24
5.9085057e-24
-2.2799253e-24
5.9637553e-24
-2.2691099e-24
6.0205444e-24
-2.2606202e-24
6.0781018e-24
-2.253217e-24
6.1361471e-24
-2.2462827e-24
6.1946448e-24
-2.2396892e-24
6.2535785e-24
-2.2331481e-24
6.3129924e-24
-2.2265232e-24
6.3729586e-24
-2.219795e-24
6.433569e-24
-2.2127614e-24
6.494935e-24
-2.2053399e-24
6.5571865e-24
-2.197567e-24
6.6204626e-24
-2.189302e-24
6.6849096e-24
-2.1805253e-24
6.7506792e-24
-2.1713359e-24
6.8179191e-24
-2.1616551e-24
6.8867721e-24
-2.1515192e-24
6.9573769e-24
-2.1410732e-24
7.0298606e-24
-2.1302768e-24
7.1043422e-24
-2.1191916e-24
7.180937e-24
-2.1079747e-24
7.2597522e-24
-2.0965906e-24
7.3408924e-24
-2.0850967e-24
7.4244656e-24
-2.0736404e-24
7.5105765e-24
-2.0621802e-24
7.5994418e-24
-2.0507701e-24
7.6909378e-24
-2.0395584e-24
7.785376e-24
-2.028515e-24
7.8827974e-24
-2.0177319e-24
7.9834927e-24
-2.0070238e-24
8.0874756e-24
-1.9969154e-24
8.1949203e-24
-1.9871155e-24
8.3052016e-24
-1.9778489e-24
8.4189204e-24
-1.9684652e-24
8.5390711e-24
-1.9583333e-24
8.6708946e-24
-1.9458702e-24
8.8205256e-24
-1.9297092e-24
8.984498e-24
-1.9144356e-24
9.1661255e-24
-1.8954269e-24
9.336068e-24
-1.8919587e-24
9.4875978e-24
-1.8763007e-24
9.6530977e-24
-1.8333805e-24
9.8895729e-24
-1.7502613e-24
1.0186937e-23
-1.6553606e-24
1.0489899e-23
-1.6711847e-24
1.0529625e-23
-1.730637e-24
1.0567158e-23
-1.6809457e-24
1.1182263e-23
-1.5400077e-24
1.1141506e-23
-1.9919366e-24
1.0381772e-23
-2.4323712e-24
9.7494964e-24
-2.0445551e-24
1.2638997e-23
-1.0782168e-24
1.0961594e-23
-1.7970941e-24
1.0558832e-23
-2.703978e-24
1.0329838e-23
-2.8576441e-24
9.9558253e-24
-2.6759766e-24
1.0189332e-23
-1.815389e-24
1.0274661e-23
-1.3929904e-24
1.0095991e-23
-1.0481108e-24
1.0395366e-23
-1.8812604e-25
1.0916957e-23
3.3859413e-25
1.7421023e-25
7.315923e-24
-3.6200978e-24
5.9504696e-24
-2.2285894e-24
5.8632044e-24
-2.3493496e-24
5.8331751e-24
-2.4153389e-24
5.8451857e-24
-2.4148081e-24
5.870438e-24
-2.3960192e-24
5.9020892e-24
-2.3742971e-24
5.9413132e-24
-2.3552969e-24
5.9870135e-24
-2.3407347e-24
6.0370888e-24
-2.3300005e-24
6.0895044e-24
-2.3215255e-24
6.1430977e-24
-2.3142136e-24
6.1974883e-24
-2.3076075e-24
6.252553e-24
-2.3013474e-24
6.3082335e-24
-2.2953697e-24
6.3645361e-24
-2.2894507e-24
6.4214956e-24
-2.2834827e-24
6.4791749e-24
-2.2774742e-24
6.537656e-24
-2.2712426e-24
6.5970401e-24
-2.264724e-24
6.6574463e-24
-2.2579732e-24
6.7190028e-24
-2.2508585e-24
6.7818459e-24
-2.2433683e-24
6.8461185e-24
-2.2356085e-24
6.911962e-24
-2.2274985e-24
6.9795152e-24
-2.2190725e-24
7.0489163e-24
-2.2104744e-24
7.1202953e-24
-2.2016558e-24
7.1937768e-24
-2.1926731e-24
7.269484e-24
-2.183682e-24
7.3475337e-24
-2.1746403e-24
7.4280403e-24
-2.1656033e-24
7.5111207e-24
-2.1567208e-24
7.5968868e-24
-2.1479462e-24
7.6854473e-24
-2.1393306e-24
7.776909e-24
-2.1310201e-24
7.8713632e-24
-2.1229692e-24
7.9688566e-24
-2.1152253e-24
8.0697568e-24
-2.107924e-24
8.1737198e-24
-2.1008784e-24
8.2811126e-24
-2.0945083e-24
8.391588e-24
-2.0883244e-24
8.5056883e-24
-2.0825655e-24
8.6243992e-24
-2.0770441e-24
8.7493854e-24
-2.0708564e-24
8.8835451e-24
-2.0638688e-24
9.0260701e-24
-2.0569606e-24
9.1792014e-24
-2.0485583e-24
9.3312245e-24
-2.0439817e-24
9.4872117e-24
-2.0322879e-24
9.6623008e-24
-2.0084696e-24
9.8794283e-24
-1.9673888e-24
1.0140573e-23
-1.9165057e-24
1.0384008e-23
-1.9146197e-24
1.0557025e-23
-1.9036538e-24
1.0746187e-23
-1.8701076e-24
1.1056707e-23
-1.850528e-24
1.1077846e-23
-2.0130751e-24
1.0793039e-23
-2.1475644e-24
1.0704708e-23
-1.9562243e-24
1.1281601e-23
-1.6551099e-24
1.140674e-23
-1.9222324e-24
1.10526e-23
-2.3498387e-24
1.0664138e-23
-2.4691818e-24
1.0293792e-23
-2.3056307e-24
1.0324941e-23
-1.8465375e-24
1.0398442e-23
-1.4664919e-24
1.045185e-23
-1.1015184e-24
1.0874249e-23
-6.1052492e-25
1.1530983e-23
-3.1814037e-25
-4.5484684e-25
7.300577e-24
-3.7694288e-24
5.9174513e-24
-2.2369721e-24
5.9669377e-24
-2.2780758e-24
5.9660682e-24
-2.34848e-24
5.9622545e-24
-2.4115252e-24
5.9737373e-24
-2.4262909e-24
5.9974675e-24
-2.4197494e-24
6.0303463e-24
-2.4071759e-24
6.070043e-24
-2.3949937e-24
6.1145353e-24
-2.385227e-24
6.1618291e-24
-2.3772943e-24
6.2108981e-24
-2.3705946e-24
6.2611094e-24
-2.3644249e-24
6.3122535e-24
-2.3587516e-24
6.3642212e-24
-2.3533151e-24
6.4169797e-24
-2.3481282e-24
6.4705267e-24
-2.3429977e-24
6.5248888e-24
-2.3378448e-24
6.5801197e-24
-2.3327052e-24
6.6362925e-24
-2.3274154e-24
6.6934986e-24
-2.32193e-24
6.751847e-24
-2.3163217e-24
6.8114564e-24
-2.3104679e-24
6.8724538e-24
-2.3043657e-24
6.9349743e-24
-2.298129e-24
6.999153e-24
-2.2916772e-24
7.0651249e-24
-2.2850444e-24
7.1330268e-24
-2.2783762e-24
7.2029895e-24
-2.2716185e-24
7.2751409e-24
-2.2648245e-24
7.3496095e-24
-2.2581506e-24
7.4265181e-24
-2.2515489e-24
7.5059877e-24
-2.2450729e-24
7.5881414e-24
-2.2388744e-24
7.6730965e-24
-2.2329014e-24
7.760967e-24
-2.227201e-24
7.8518645e-24
-2.2219176e-24
7.9458875e-24
-2.2169922e-24
8.0431226e-24
-2.2124604e-24
8.143647e-24
-2.2084484e-24
8.2476416e-24
-2.204873e-24
8.3547445e-24
-2.2016113e-24
8.4655457e-24
-2.1991255e-24
8.5798963e-24
-2.1969162e-24
8.6978289e-24
-2.1949767e-24
8.8201212e-24
-2.1931488e-24
8.9476174e-24
-2.1913649e-24
9.0801608e-24
-2.189504e-24
9.2185111e-24
-2.1869086e-24
9.3595491e-24
-2.1850198e-24
9.5069641e-24
-2.1797029e-24
9.6676429e-24
-2.1691484e-24
9.8509961e-24
-2.150742e-24
1.0060752e-23
-2.1262618e-24
1.0262811e-23
-2.1166786e-24
1.045496e-23
-2.0958025e-24
1.0654772e-23
-2.0699197e-24
1.0862502e-23
-2.0582584e-24
1.0946612e-23
-2.0971844e-24
1.091477e-23
-2.1157231e-24
1.0974751e-23
-2.0162046e-24
1.1229686e-23
-1.9100455e-24
1.1301323e-23
-1.9938692e-24
1.1102225e-23
-2.1507408e-24
1.0816873e-23
-2.1838294e-24
1.0569887e-23
-2.0586448e-24
1.0521645e-23
-1.7982956e-24
1.0583329e-23
-1.5281757e-24
1.0738575e-23
-1.2567645e-24
1.109912e-23
-9.7107052e-25
1.1578182e-23
-7.9720149e-25
-8.3647871e-25
7.1505839e-24
-4.1583933e-24
5.8041632e-24
-2.4230082e-24
5.9265007e-24
-2.3593096e-24
6.0085168e-24
-2.3600919e-24
6.053287e-24
-2.3932503e-24
6.0752683e-24
-2.4335065e-24
6.0969475e-24
-2.44797e-24
6.124378e-24
-2.4471799e-24
6.1578651e-24
-2.440663e-24
6.1963426e-24
-2.4334712e-24
6.2381974e-24
-2.4270818e-24
6.282125e-24
-2.421222e-24
6.3275646e-24
-2.4160341e-24
6.3743136e-24
-2.4111739e-24
6.4221231e-24
-2.4065611e-24
6.4709152e-24
-2.4021072e-24
6.5206511e-24
-2.3978641e-24
6.571322e-24
-2.3936686e-24
6.6229468e-24
-2.3894696e-24
6.675571e-24
-2.3853294e-24
6.7292591e-24
-2.3811035e-24
6.7840935e-24
-2.3767644e-24
6.8401741e-24
-2.3724022e-24
6.8976103e-24
-2.3679041e-24
6.9565207e-24
-2.3632761e-24
7.017033e-24
-2.3586413e-24
7.0792762e-24
-2.3539204e-24
7.1433811e-24
-2.3491493e-24
7.2094817e-24
-2.3444768e-24
7.2777085e-24
-2.3398453e-24
7.3481907e-24
-2.3353067e-24
7.421059e-24
-2.3310189e-24
7.4964399e-24
-2.3269297e-24
7.5744582e-24
-2.3230912e-24
7.655241e-24
-2.3196572e-24
7.7389095e-24
-2.31657e-24
7.8255813e-24
-2.3138728e-24
7.9153724e-24
-2.3117087e-24
8.008387e-24
-2.3100068e-24
8.1047188e-24
-2.3087922e-24
8.204454e-24
-2.3081836e-24
8.3076597e-24
-2.3080787e-24
8.4145118e-24
-2.3084634e-24
8.5247955e-24
-2.3094092e-24
8.6386398e-24
-2.3107605e-24
8.7561089e-24
-2.3124457e-24
8.8772965e-24
-2.3143364e-24
9.0024204e-24
-2.3164888e-24
9.1310662e-24
-2.3181498e-24
9.2638521e-24
-2.3196944e-24
9.3995902e-24
-2.320758e-24
9.5397699e-24
-2.3198826e-24
9.6869659e-24
-2.3163443e-24
9.8448123e-24
-2.3085884e-24
1.0015301e-23
-2.2967502e-24
1.0185246e-23
-2.2866238e-24
1.0357438e-23
-2.2679946e-24
1.0532705e-23
-2.2451872e-24
1.0699803e-23
-2.2253558e-24
1.0817171e-23
-2.2145526e-24
1.0891865e-23
-2.1904167e-24
1.0998732e-23
-2.1230723e-24
1.114813e-23
-2.0594434e-24
1.1208741e-23
-2.0544796e-24
1.113082e-23
-2.0728197e-24
1.0986834e-23
-2.0398436e-24
1.0861234e-23
-1.9330447e-24
1.0828953e-23
-1.7660152e-24
1.088223e-23
-1.5814527e-24
1.1018933e-23
-1.3934674e-24
1.1258192e-23
-1.2103295e-24
1.1541848e-23
-1.0808576e-24
-1.0425511e-24
7.3464836e-24
-4.2198936e-24
5.8125105e-24
-2.6244203e-24
5.9233229e-24
-2.5338206e-24
6.0270289e-24
-2.4630157e-24
6.1064652e-24
-2.4395281e-24
6.1604757e-24
-2.4472608e-24
6.1933131e-24