/*--------------------------------*- C++ -*----------------------------------*\
| =========                 |                                                 |
| \\      /  F ield         | OpenFOAM: The Open Source CFD Toolbox           |
|  \\    /   O peration     | Version:  2412                                  |
|   \\  /    A nd           | Website:  www.openfoam.com                      |
|    \\/     M anipulation  |                                                 |
\*---------------------------------------------------------------------------*/
FoamFile
{
    version     2.0;
    format      ascii;
    arch        "LSB;label=32;scalar=64";
    class       volVectorField;
    location    "15174";
    object      U;
}
// * * * * * * * * * * * * * * * * * * * * * * * * * * * * * * * * * * * * * //

dimensions      [0 1 -1 0 0 0 0];

internalField   nonuniform List<vector> 
57425
(
(4.2757982e-07 -1.5809793e-08 7.8485354e-25)
(4.2388773e-07 -2.2694762e-08 6.5502512e-27)
(4.1629587e-07 -2.898868e-08 -3.4256933e-27)
(4.0918095e-07 -3.6755482e-08 -2.7539792e-26)
(4.0099993e-07 -4.4278893e-08 -3.4623427e-26)
(3.9169616e-07 -5.0328069e-08 1.723939e-25)
(3.8224043e-07 -5.4158482e-08 3.7578391e-27)
(3.709727e-07 -5.5557461e-08 3.8159219e-25)
(3.9169945e-07 -1.5535342e-08 3.4526901e-25)
(3.828066e-07 -1.4769479e-08 -5.0629712e-25)
(3.7864284e-07 -2.1629821e-08 1.5616943e-25)
(3.7279542e-07 -2.8980199e-08 -6.5322902e-26)
(3.6597394e-07 -3.5792407e-08 2.0649216e-27)
(3.5760802e-07 -4.1043429e-08 -1.0617505e-25)
(3.4867674e-07 -4.4236173e-08 1.3132365e-25)
(3.3697492e-07 -4.5588745e-08 -1.1199457e-25)
(3.4456869e-07 -8.7640114e-09 -7.8942684e-26)
(3.4369571e-07 -1.7127792e-08 -3.3395987e-26)
(3.4117698e-07 -2.3650642e-08 5.602202e-26)
(3.371729e-07 -2.9065823e-08 -1.1341019e-26)
(3.3074437e-07 -3.2903612e-08 4.8949876e-26)
(3.2294735e-07 -3.4910152e-08 -2.6287454e-25)
(3.1173191e-07 -3.6166899e-08 2.2995213e-25)
(3.1516151e-07 -1.2518685e-08 -2.7692305e-25)
(3.1700583e-07 -1.7600819e-08 -4.2659091e-26)
(3.1741767e-07 -2.1502266e-08 3.7848609e-26)
(3.1636729e-07 -2.4723077e-08 -1.3397616e-25)
(3.1242707e-07 -2.625365e-08 7.0028799e-26)
(3.0608961e-07 -2.5759783e-08 5.0694374e-26)
(2.9437307e-07 -2.3898015e-08 7.1891208e-25)
(2.858647e-07 -1.5786141e-08 -2.6057574e-24)
(2.9466402e-07 -1.9172097e-08 1.7643601e-24)
(2.9643969e-07 -2.1835236e-08 -2.6378413e-25)
(3.0250423e-07 -2.2894449e-08 -1.2629807e-25)
(3.0440221e-07 -2.3635438e-08 7.159326e-26)
(3.0412237e-07 -2.2644701e-08 4.3842123e-26)
(3.0153696e-07 -1.9469313e-08 -6.6853568e-26)
(2.9747609e-07 -1.4356603e-08 -5.1222707e-27)
(2.934807e-07 -6.9409509e-09 -1.0952306e-24)
(2.9137052e-07 -2.6374398e-08 -3.1416713e-25)
(2.9726007e-07 -2.6786011e-08 5.4197123e-26)
(3.0135052e-07 -2.5857107e-08 -2.3310426e-26)
(3.0447537e-07 -2.3228729e-08 -9.6946955e-26)
(3.0614998e-07 -1.8910933e-08 4.5240611e-27)
(3.0717552e-07 -1.3407403e-08 -2.7252827e-26)
(3.0707548e-07 -7.1111409e-09 4.4330459e-25)
(3.1221122e-07 -6.7565987e-09 -3.6446102e-24)
(2.9296505e-07 -3.2556196e-08 4.0769704e-25)
(2.9968915e-07 -3.2293567e-08 -1.5385717e-25)
(3.057743e-07 -3.0581593e-08 3.02698e-26)
(3.1189741e-07 -2.7313457e-08 2.7713341e-26)
(3.1746299e-07 -2.2675958e-08 -1.5621882e-26)
(3.2282969e-07 -1.7214117e-08 -1.1024586e-27)
(3.2884546e-07 -1.2184324e-08 6.6599102e-26)
(3.3671195e-07 -7.493339e-09 -7.4406473e-25)
(3.0049445e-07 -3.9714743e-08 -3.1065304e-25)
(3.0831225e-07 -3.9278199e-08 -2.0103153e-25)
(3.1611316e-07 -3.7537118e-08 -4.0762253e-26)
(3.2471586e-07 -3.4457846e-08 8.1994578e-26)
(3.3346978e-07 -3.0260458e-08 6.4251562e-26)
(3.4266811e-07 -2.544353e-08 7.657345e-26)
(3.5270646e-07 -2.0594578e-08 -6.5227448e-26)
(3.6304634e-07 -1.6237629e-08 4.9268633e-25)
(3.7594856e-07 -2.0370287e-08 4.8973628e-25)
(3.1293203e-07 -4.7782139e-08 3.0313314e-25)
(3.2174059e-07 -4.7711044e-08 -1.4019011e-25)
(3.3093336e-07 -4.6494786e-08 5.4146587e-26)
(3.4146719e-07 -4.4163634e-08 7.313054e-27)
(3.5264469e-07 -4.0940199e-08 8.4118496e-27)
(3.6467649e-07 -3.733432e-08 5.5086572e-26)
(3.7770311e-07 -3.4091101e-08 1.4231325e-25)
(3.9197905e-07 -3.2534315e-08 -3.9382268e-27)
(4.0633688e-07 -3.3754021e-08 -3.4930546e-26)
(4.2223637e-07 -4.2244109e-08 -2.7525263e-25)
(3.2880798e-07 -5.6738834e-08 1.7571865e-25)
(3.3849479e-07 -5.7476674e-08 -2.6960117e-25)
(3.4883961e-07 -5.7204584e-08 4.9546572e-26)
(3.6089369e-07 -5.5955228e-08 5.192365e-26)
(3.7389465e-07 -5.3911195e-08 -2.5508646e-26)
(3.8791117e-07 -5.1564288e-08 -1.1880695e-26)
(4.0285231e-07 -4.9653159e-08 -4.4287061e-26)
(4.1859723e-07 -4.9165602e-08 -9.4048365e-26)
(4.3477175e-07 -5.1374791e-08 -9.7552685e-28)
(4.4905777e-07 -5.555125e-08 9.0931419e-26)
(4.6438038e-07 -6.2449e-08 3.1076598e-24)
(3.4675354e-07 -6.6553719e-08 -5.1770545e-25)
(3.5716999e-07 -6.858677e-08 5.2351861e-26)
(3.6857324e-07 -6.958441e-08 6.1591222e-26)
(3.819887e-07 -6.9547251e-08 -2.9891179e-26)
(3.9650047e-07 -6.8625537e-08 2.6775001e-26)
(4.11995e-07 -6.7342209e-08 -8.2888505e-27)
(4.2826733e-07 -6.6383576e-08 4.3728771e-26)
(4.4502455e-07 -6.6456749e-08 -7.8476816e-26)
(4.6191137e-07 -6.831174e-08 8.039597e-26)
(4.7817891e-07 -7.2178067e-08 2.2836473e-26)
(4.9316912e-07 -7.600565e-08 9.8962142e-26)
(5.0905177e-07 -8.4466458e-08 -2.215059e-25)
(3.6530278e-07 -7.7147168e-08 -2.0148249e-25)
(3.762031e-07 -8.1253911e-08 6.1868276e-26)
(3.8898991e-07 -8.3784302e-08 1.1451235e-26)
(4.0400038e-07 -8.4870887e-08 -3.0078542e-26)
(4.1998066e-07 -8.4766771e-08 2.4236461e-26)
(4.3665229e-07 -8.4216566e-08 6.3626489e-28)
(4.5381076e-07 -8.3899739e-08 -6.1540912e-26)
(4.7118713e-07 -8.4392057e-08 -1.0442823e-25)
(4.8846929e-07 -8.6154608e-08 -2.7462077e-26)
(5.0523753e-07 -8.9431042e-08 -8.0624558e-26)
(5.215808e-07 -9.3845771e-08 2.9451852e-25)
(5.367302e-07 -9.9003666e-08 3.0605634e-25)
(5.5045373e-07 -1.1081003e-07 -1.2384474e-24)
(5.6477585e-07 -1.1992192e-07 7.4445959e-25)
(3.8041634e-07 -8.7720873e-08 6.9517895e-26)
(3.9253369e-07 -9.5064046e-08 2.0702157e-25)
(4.0912117e-07 -9.9759938e-08 -2.084547e-25)
(4.2659951e-07 -1.0175428e-07 -1.0076505e-26)
(4.4421735e-07 -1.0200499e-07 -7.6647979e-26)
(4.6182885e-07 -1.0176666e-07 1.2641367e-26)
(4.7950016e-07 -1.0175419e-07 2.2287909e-27)
(4.9710267e-07 -1.0245788e-07 -1.038095e-26)
(5.1444318e-07 -1.042049e-07 6.7468098e-26)
(5.3124766e-07 -1.071849e-07 -5.051534e-26)
(5.4744517e-07 -1.1137841e-07 1.0689883e-25)
(5.6247035e-07 -1.1718455e-07 2.3313344e-26)
(5.7732933e-07 -1.2501569e-07 -7.1806187e-26)
(5.8962455e-07 -1.3123089e-07 6.8434848e-25)
(6.0177986e-07 -1.3936419e-07 -1.0343865e-24)
(6.1295957e-07 -1.4270016e-07 -6.6867949e-25)
(3.8637927e-07 -1.0575626e-07 -1.0048681e-24)
(4.0488238e-07 -1.1904799e-07 -8.276085e-27)
(4.3004716e-07 -1.2071279e-07 2.0476341e-25)
(4.5016006e-07 -1.2080145e-07 -5.3693345e-26)
(4.6939648e-07 -1.2018515e-07 -6.9761792e-26)
(4.8760819e-07 -1.196477e-07 4.077755e-26)
(5.0540313e-07 -1.195778e-07 -2.0120566e-26)
(5.2288378e-07 -1.2026206e-07 -8.8353307e-28)
(5.399929e-07 -1.2188686e-07 3.0925511e-27)
(5.5656698e-07 -1.2455923e-07 -1.1386142e-25)
(5.7248184e-07 -1.2827165e-07 7.054361e-27)
(5.8744541e-07 -1.3315083e-07 2.9744006e-26)
(6.0161521e-07 -1.3872817e-07 -7.4487914e-26)
(6.1491656e-07 -1.4482002e-07 3.1414589e-26)
(6.2619876e-07 -1.4905453e-07 7.5803071e-26)
(6.3526891e-07 -1.5066529e-07 -9.8633529e-25)
(6.4498743e-07 -1.5421394e-07 5.588543e-25)
(6.5481671e-07 -1.5379932e-07 -3.0422928e-24)
(4.4181265e-07 -1.4344699e-07 4.5659485e-25)
(4.5968457e-07 -1.4109598e-07 -1.7217662e-25)
(4.7798865e-07 -1.3936407e-07 1.1210069e-25)
(4.9654797e-07 -1.3798488e-07 3.1562424e-27)
(5.1429209e-07 -1.3712609e-07 -2.8365408e-27)
(5.3161128e-07 -1.3691531e-07 4.6976791e-27)
(5.485802e-07 -1.3747939e-07 6.727223e-27)
(5.6516825e-07 -1.388981e-07 1.2915192e-26)
(5.8124933e-07 -1.4120747e-07 9.071767e-28)
(5.9667209e-07 -1.4435836e-07 1.2692805e-26)
(6.1121994e-07 -1.482854e-07 4.9990965e-27)
(6.2481706e-07 -1.5256644e-07 -2.1009763e-26)
(6.3721818e-07 -1.566703e-07 2.6283349e-26)
(6.4855165e-07 -1.5949667e-07 -9.6299793e-26)
(6.595987e-07 -1.6190623e-07 1.638353e-26)
(6.6913334e-07 -1.6232984e-07 4.1036348e-26)
(6.765491e-07 -1.6028239e-07 -3.3264321e-26)
(6.8530276e-07 -1.6127316e-07 -6.615832e-25)
(6.9505613e-07 -1.5907071e-07 -1.036462e-24)
(4.7509473e-07 -1.5719246e-07 -4.8213006e-26)
(4.9033241e-07 -1.5652338e-07 2.1960794e-26)
(5.0688741e-07 -1.554195e-07 -1.3169809e-26)
(5.2435417e-07 -1.5435053e-07 1.6548414e-26)
(5.4127135e-07 -1.5362128e-07 -1.9364837e-27)
(5.5784087e-07 -1.5343036e-07 -2.9359259e-27)
(5.7409301e-07 -1.5389519e-07 1.7864099e-27)
(5.8999677e-07 -1.5507256e-07 -9.2225573e-27)
(6.0544052e-07 -1.5696647e-07 -2.4782789e-27)
(6.202677e-07 -1.5950283e-07 2.100105e-26)
(6.3428897e-07 -1.6253518e-07 5.6394292e-27)
(6.4738989e-07 -1.657282e-07 -3.0986414e-26)
(6.5946824e-07 -1.6866551e-07 2.8048292e-28)
(6.7071203e-07 -1.7068806e-07 1.4167281e-26)
(6.8126163e-07 -1.7183465e-07 -1.6044741e-26)
(6.9113144e-07 -1.7150683e-07 8.7437088e-28)
(7.0109032e-07 -1.7095265e-07 1.8855144e-26)
(7.1008744e-07 -1.6894781e-07 -6.6381482e-27)
(7.1713938e-07 -1.6494636e-07 2.6251217e-25)
(7.2554946e-07 -1.6457593e-07 -4.44742e-25)
(7.3534085e-07 -1.6134409e-07 1.3413048e-24)
(5.0519896e-07 -1.704531e-07 -4.8540381e-27)
(5.1997018e-07 -1.705041e-07 2.1285971e-26)
(5.3549698e-07 -1.7016693e-07 -2.0164701e-26)
(5.5200464e-07 -1.6964433e-07 1.214845e-27)
(5.6806564e-07 -1.6920749e-07 1.9409224e-28)
(5.8383083e-07 -1.6911308e-07 1.9159337e-27)
(5.9931675e-07 -1.6949709e-07 -1.9778399e-27)
(6.1449468e-07 -1.7042516e-07 -8.1174594e-28)
(6.2926425e-07 -1.7189348e-07 -3.264033e-27)
(6.4348203e-07 -1.7382438e-07 -3.5446e-27)
(6.5699214e-07 -1.7605958e-07 1.1374446e-26)
(6.6968718e-07 -1.7832677e-07 -2.1581997e-27)
(6.8152732e-07 -1.8031107e-07 -2.3147141e-28)
(6.9264367e-07 -1.8162137e-07 -7.4299074e-27)
(7.0314179e-07 -1.8216112e-07 -2.6955353e-28)
(7.1319016e-07 -1.8162253e-07 5.0551471e-27)
(7.2294654e-07 -1.8027899e-07 -1.3758859e-28)
(7.3240999e-07 -1.7779904e-07 -4.1795455e-27)
(7.4218567e-07 -1.7555586e-07 2.0572294e-27)
(7.5111804e-07 -1.7216661e-07 -3.9938329e-26)
(7.5813316e-07 -1.6700319e-07 -8.4633871e-25)
(7.6656071e-07 -1.6603673e-07 8.8000305e-25)
(7.7662629e-07 -1.6235834e-07 -1.233408e-24)
(5.3288942e-07 -1.8322427e-07 -6.0505148e-25)
(5.4872942e-07 -1.8412862e-07 3.6117346e-25)
(5.6345021e-07 -1.8432825e-07 -1.1357092e-25)
(5.791285e-07 -1.8425304e-07 -2.1755041e-27)
(5.9440395e-07 -1.8407475e-07 -2.834252e-27)
(6.0941266e-07 -1.8406066e-07 -3.4022964e-28)
(6.24175e-07 -1.8435871e-07 1.3734392e-27)
(6.3866243e-07 -1.8503951e-07 3.6666109e-28)
(6.5278842e-07 -1.8610346e-07 2.0699347e-29)
(6.6643202e-07 -1.8748018e-07 2.1443623e-28)
(6.7947215e-07 -1.8902968e-07 -3.2149594e-27)
(6.918255e-07 -1.9053726e-07 -8.5013208e-28)
(7.0347366e-07 -1.9175839e-07 2.5038977e-28)
(7.1449931e-07 -1.924357e-07 4.0855906e-27)
(7.2500176e-07 -1.9245036e-07 1.228104e-28)
(7.3513494e-07 -1.9164582e-07 -2.2576834e-27)
(7.4501053e-07 -1.9011067e-07 3.0439463e-28)
(7.5475463e-07 -1.8772732e-07 1.6270271e-27)
(7.6442339e-07 -1.8483991e-07 -3.1028885e-27)
(7.7393395e-07 -1.8109355e-07 -9.888436e-27)
(7.8387103e-07 -1.7790173e-07 -2.3612159e-26)
(7.9303822e-07 -1.7380567e-07 -3.7838182e-26)
(8.0034741e-07 -1.6809545e-07 -8.2363462e-25)
(8.0905104e-07 -1.6709985e-07 5.7500779e-25)
(8.1963282e-07 -1.6344814e-07 3.0632757e-24)
(5.511238e-07 -1.9646165e-07 1.8400459e-24)
(5.5770863e-07 -1.9545777e-07 1.152168e-25)
(5.7638236e-07 -1.98202e-07 -1.7798662e-25)
(5.9063842e-07 -1.9845785e-07 1.3469506e-26)
(6.0557942e-07 -1.9850061e-07 -3.3931638e-26)
(6.2016413e-07 -1.984162e-07 1.4416815e-26)
(6.3450491e-07 -1.983977e-07 -3.1975371e-27)
(6.4862309e-07 -1.9857599e-07 1.0577926e-27)
(6.6249047e-07 -1.9901139e-07 1.0197633e-27)
(6.7603537e-07 -1.9970384e-07 -1.701653e-28)
(6.8916268e-07 -2.0059278e-07 4.5855461e-29)
(7.0178187e-07 -2.01562e-07 1.2257918e-27)
(7.1383436e-07 -2.0244555e-07 2.6487518e-29)
(7.253129e-07 -2.0305657e-07 -1.2726672e-27)
(7.3627374e-07 -2.0321179e-07 -2.0409603e-28)
(7.468015e-07 -2.0279763e-07 -1.9216518e-28)
(7.5701445e-07 -2.0171779e-07 -7.745469e-29)
(7.6701507e-07 -1.9999773e-07 1.7914012e-27)
(7.7692129e-07 -1.9761502e-07 -9.302884e-28)
(7.8677816e-07 -1.9472569e-07 3.2389573e-27)
(7.9665153e-07 -1.912298e-07 2.7864841e-27)
(8.065677e-07 -1.8747715e-07 -2.2305928e-27)
(8.1641817e-07 -1.8310533e-07 -7.3789213e-27)
(8.267968e-07 -1.7956673e-07 -1.3824272e-26)
(8.3642465e-07 -1.7532111e-07 9.7742766e-26)
(8.4445555e-07 -1.6964131e-07 -1.263922e-25)
(8.5371329e-07 -1.6950899e-07 4.9062787e-25)
(8.6395041e-07 -1.6649732e-07 9.5924085e-25)
(5.776537e-07 -2.118807e-07 4.6631508e-25)
(5.9023402e-07 -2.1247277e-07 -1.3568473e-25)
(6.0316645e-07 -2.1286117e-07 -3.4885567e-26)
(6.1733415e-07 -2.1264802e-07 -3.123965e-26)
(6.314373e-07 -2.1249611e-07 5.2945596e-27)
(6.4535764e-07 -2.1232669e-07 1.3639302e-26)
(6.5910347e-07 -2.1221209e-07 -1.0097469e-26)
(6.7265122e-07 -2.1223268e-07 3.8679903e-28)
(6.8596982e-07 -2.1242512e-07 3.9121633e-28)
(6.9899997e-07 -2.1278204e-07 1.5706055e-28)
(7.1166997e-07 -2.1325025e-07 -6.3596632e-29)
(7.2391587e-07 -2.1373522e-07 -4.4122974e-28)
(7.3569869e-07 -2.1410841e-07 2.8371472e-28)
(7.4701821e-07 -2.1422758e-07 -3.2901183e-28)
(7.5791746e-07 -2.1395752e-07 4.6692244e-28)
(7.6846634e-07 -2.1320195e-07 -1.0580247e-28)
(7.7875748e-07 -2.1189212e-07 -1.2975337e-28)
(7.8888012e-07 -2.1002473e-07 6.2438967e-28)
(7.9892697e-07 -2.0760296e-07 -1.4216745e-27)
(8.0895592e-07 -2.0471447e-07 -8.2688512e-28)
(8.1903996e-07 -2.0136715e-07 1.2938228e-27)
(8.291921e-07 -1.9773039e-07 -3.9615355e-28)
(8.3944945e-07 -1.9370953e-07 -1.805093e-27)
(8.4981443e-07 -1.8965819e-07 5.4741663e-27)
(8.6012557e-07 -1.8519869e-07 -3.4714642e-27)
(8.7100315e-07 -1.8181575e-07 1.8259477e-26)
(8.8081959e-07 -1.7790536e-07 -4.227777e-27)
(8.8814875e-07 -1.7250798e-07 -1.9803445e-25)
(8.9640509e-07 -1.7144339e-07 9.7331341e-25)
(9.0649537e-07 -1.6781389e-07 -1.0813714e-24)
(6.0346107e-07 -2.2662947e-07 -2.6386651e-25)
(6.1608301e-07 -2.2721218e-07 2.3936591e-26)
(6.2909933e-07 -2.2688745e-07 2.4830679e-26)
(6.4297496e-07 -2.264692e-07 8.1774012e-27)
(6.5654504e-07 -2.2612847e-07 -8.3316731e-27)
(6.6996223e-07 -2.2580798e-07 6.8083259e-27)
(6.8320528e-07 -2.255481e-07 -4.6754842e-27)
(6.9625371e-07 -2.2538926e-07 9.772898e-28)
(7.0908637e-07 -2.253464e-07 -1.2793172e-28)
(7.2166024e-07 -2.2540422e-07 -1.0506844e-29)
(7.3392439e-07 -2.2551437e-07 2.4697518e-29)
(7.4583644e-07 -2.2559941e-07 4.221614e-30)
(7.5737322e-07 -2.25559e-07 2.5164534e-29)
(7.6853952e-07 -2.2528401e-07 6.9011012e-29)
(7.7937084e-07 -2.2467215e-07 -5.4751607e-29)
(7.8992513e-07 -2.2364551e-07 -7.8343659e-29)
(8.002768e-07 -2.2215198e-07 -2.0182665e-29)
(8.1050242e-07 -2.2017966e-07 -1.343279e-28)
(8.2067779e-07 -2.177359e-07 -9.8412963e-28)
(8.3086164e-07 -2.1487159e-07 2.6995983e-28)
(8.4111151e-07 -2.1162306e-07 -1.4308686e-27)
(8.5145486e-07 -2.0809597e-07 3.7641771e-27)
(8.6193312e-07 -2.0430627e-07 3.5965625e-27)
(8.7252652e-07 -2.0042118e-07 2.5652884e-27)
(8.8321635e-07 -1.9632591e-07 1.8235474e-27)
(8.9397103e-07 -1.9234013e-07 -1.9587539e-28)
(9.0443102e-07 -1.8801557e-07 -3.8721332e-26)
(9.1506833e-07 -1.846309e-07 5.3836726e-26)
(9.2464133e-07 -1.8025405e-07 1.0689905e-26)
(9.3238904e-07 -1.7458098e-07 2.268071e-25)
(9.4080175e-07 -1.7588667e-07 1.940949e-24)
(9.5449689e-07 -1.7568387e-07 -3.2025257e-25)
(9.6503156e-07 -1.7218646e-07 -1.4325515e-24)
(6.2758057e-07 -2.4086263e-07 -2.1769811e-25)
(6.4061199e-07 -2.4122716e-07 1.1580857e-25)
(6.5395166e-07 -2.4055579e-07 5.1672344e-27)
(6.6775335e-07 -2.3991527e-07 1.1396601e-26)
(6.8101311e-07 -2.3936179e-07 -5.1908555e-27)
(6.9403156e-07 -2.3886382e-07 2.0592361e-27)
(7.0683471e-07 -2.384357e-07 -8.7161146e-28)
(7.1943408e-07 -2.3809008e-07 2.3043194e-28)
(7.3182717e-07 -2.3782529e-07 9.3046024e-30)
(7.4398859e-07 -2.3761948e-07 -2.6586393e-29)
(7.5588609e-07 -2.3742794e-07 1.5403485e-29)
(7.674935e-07 -2.3718586e-07 3.3409218e-29)
(7.7879985e-07 -2.3681388e-07 -3.4449077e-33)
(7.8981397e-07 -2.362271e-07 -3.3405961e-29)
(8.0056667e-07 -2.3534657e-07 2.8911949e-29)
(8.1110675e-07 -2.3411031e-07 -6.6895679e-30)
(8.2149505e-07 -2.3247735e-07 -1.2038976e-29)
(8.3179647e-07 -2.3043434e-07 1.2183907e-28)
(8.4207519e-07 -2.2798854e-07 5.9950022e-29)
(8.5238575e-07 -2.2517378e-07 5.5492745e-30)
(8.6277659e-07 -2.2202878e-07 -6.8900495e-28)
(8.7327795e-07 -2.1862259e-07 -1.0192299e-27)
(8.8391674e-07 -2.149998e-07 -1.0901926e-27)
(8.9468684e-07 -2.1126204e-07 8.8749698e-27)
(9.0557951e-07 -2.0740531e-07 1.7791561e-27)
(9.1653356e-07 -2.0355554e-07 9.9584307e-27)
(9.2741648e-07 -1.9954358e-07 4.3035697e-26)
(9.3817286e-07 -1.9558234e-07 1.3126834e-26)
(9.4870648e-07 -1.9120579e-07 -7.1100361e-27)
(9.5955432e-07 -1.8809971e-07 -4.9532002e-26)
(9.6929172e-07 -1.8509191e-07 -1.0882819e-25)
(9.8106726e-07 -1.8237565e-07 2.1587473e-25)
(9.8935361e-07 -1.773751e-07 -1.1180871e-25)
(9.9711298e-07 -1.7503177e-07 3.033027e-25)
(1.007711e-06 -1.7037684e-07 6.9298922e-25)
(6.5087881e-07 -2.550723e-07 -2.0023904e-25)
(6.6449449e-07 -2.5453274e-07 1.8732907e-25)
(6.7810474e-07 -2.5363689e-07 -1.9115648e-26)
(6.9190044e-07 -2.5286115e-07 8.4932666e-27)
(7.0493831e-07 -2.521447e-07 -1.1735098e-26)
(7.1760797e-07 -2.5148393e-07 -5.4583848e-27)
(7.3000743e-07 -2.5088972e-07 4.8927881e-28)
(7.4218984e-07 -2.5036402e-07 -5.9269682e-29)
(7.5417498e-07 -2.4989671e-07 -4.0172708e-29)
(7.659548e-07 -2.4946244e-07 -5.2283931e-30)
(7.7751243e-07 -2.4901978e-07 0)
(7.8883445e-07 -2.4851361e-07 0)
(7.9991839e-07 -2.4787968e-07 0)
(8.1077649e-07 -2.4705094e-07 0)
(8.2143668e-07 -2.4596559e-07 0)
(8.3194055e-07 -2.4457421e-07 0)
(8.4233917e-07 -2.4284409e-07 6.6868235e-30)
(8.5268725e-07 -2.4076262e-07 4.8787477e-29)
(8.6303949e-07 -2.3833549e-07 -3.9607934e-29)
(8.7344471e-07 -2.3558726e-07 -9.7058553e-29)
(8.8394484e-07 -2.3255239e-07 4.847262e-29)
(8.9456967e-07 -2.2928142e-07 -8.8494038e-28)
(9.0533966e-07 -2.2582008e-07 2.2800792e-27)
(9.1625538e-07 -2.2223284e-07 -2.935883e-27)
(9.2730404e-07 -2.185468e-07 6.981048e-28)
(9.3844453e-07 -2.1482762e-07 -2.6117594e-26)
(9.4960467e-07 -2.1103272e-07 -1.4631449e-26)
(9.6072031e-07 -2.0722496e-07 -1.4055984e-26)
(9.7177973e-07 -2.0325377e-07 -4.2445452e-27)
(9.8276211e-07 -1.995272e-07 1.9965479e-28)
(9.9367077e-07 -1.9564008e-07 3.9401605e-26)
(1.0053754e-06 -1.9183962e-07 4.4593807e-26)
(1.0170668e-06 -1.8873668e-07 -2.1162068e-26)
(1.027043e-06 -1.8353111e-07 -3.8134348e-26)
(1.035098e-06 -1.7679672e-07 -2.692899e-25)
(1.044404e-06 -1.7631201e-07 1.9633087e-25)
(1.0557727e-06 -1.7313575e-07 -7.5084058e-25)
(6.7225093e-07 -2.6751384e-07 -1.3529868e-25)
(6.881048e-07 -2.6714136e-07 -3.9885014e-26)
(7.018898e-07 -2.6622651e-07 1.1660882e-26)
(7.1560998e-07 -2.6537101e-07 3.9361646e-26)
(7.2841117e-07 -2.6450853e-07 4.8107862e-28)
(7.4072904e-07 -2.6368711e-07 -4.3527287e-27)
(7.5273325e-07 -2.6292905e-07 1.2988699e-27)
(7.6451385e-07 -2.6223331e-07 1.6063683e-28)
(7.7610985e-07 -2.6158488e-07 6.2810104e-29)
(7.8752732e-07 -2.6095604e-07 -2.1820947e-29)
(7.9876123e-07 -2.6030775e-07 0)
(8.0980761e-07 -2.5959212e-07 0)
(8.206705e-07 -2.5875593e-07 0)
(8.3136442e-07 -2.5774519e-07 0)
(8.4191531e-07 -2.5651059e-07 0)
(8.5235943e-07 -2.5501253e-07 0)
(8.6274038e-07 -2.5322453e-07 0)
(8.7310483e-07 -2.5113549e-07 2.0199342e-29)
(8.8349947e-07 -2.4874916e-07 -1.7945599e-33)
(8.939674e-07 -2.460839e-07 -4.602511e-29)
(9.0454517e-07 -2.431681e-07 -2.7833608e-29)
(9.1526061e-07 -2.4004053e-07 1.779067e-28)
(9.2613223e-07 -2.367413e-07 -3.1618163e-28)
(9.3716475e-07 -2.3331644e-07 -4.9344174e-28)
(9.4834992e-07 -2.2979689e-07 -1.7714216e-27)
(9.5966316e-07 -2.2621855e-07 -5.5074365e-28)
(9.7105741e-07 -2.2257789e-07 1.275885e-26)
(9.8249427e-07 -2.1889598e-07 2.5317013e-27)
(9.9396267e-07 -2.1513236e-07 1.1902718e-26)
(1.0054367e-06 -2.1140751e-07 5.5799003e-27)
(1.0170615e-06 -2.0754999e-07 -8.7589101e-27)
(1.0290938e-06 -2.0366998e-07 -2.7685483e-26)
(1.0409679e-06 -1.9974373e-07 2.2570177e-26)
(1.0524249e-06 -1.9475651e-07 9.6684749e-27)
(1.0645724e-06 -1.9091212e-07 -2.9175589e-26)
(1.0757776e-06 -1.8650888e-07 7.2063704e-26)
(1.0851606e-06 -1.8105663e-07 9.8808223e-25)
(1.0949597e-06 -1.8394234e-07 2.1239566e-25)
(1.110494e-06 -1.8507117e-07 3.6021229e-25)
(1.1225568e-06 -1.8235814e-07 2.4457064e-24)
(6.8360304e-07 -2.8388076e-07 -1.085102e-24)
(6.9197813e-07 -2.8064241e-07 -1.153839e-25)
(7.1173136e-07 -2.8043838e-07 -1.2989783e-25)
(7.2565692e-07 -2.7890471e-07 6.4301101e-27)
(7.3906595e-07 -2.7765651e-07 -1.8733073e-26)
(7.5151558e-07 -2.7652889e-07 4.1501343e-27)
(7.6343069e-07 -2.7550219e-07 9.3720127e-28)
(7.7502169e-07 -2.7456965e-07 -1.3715093e-27)
(7.8639919e-07 -2.7371203e-07 -7.0310406e-28)
(7.9761211e-07 -2.7290385e-07 -1.5505881e-28)
(8.0867508e-07 -2.7211256e-07 2.7050908e-29)
(8.1959141e-07 -2.7130001e-07 0)
(8.3036384e-07 -2.7042305e-07 0)
(8.4100077e-07 -2.6943642e-07 0)
(8.5151825e-07 -2.6829558e-07 0)
(8.6194065e-07 -2.6696048e-07 0)
(8.7230016e-07 -2.6539897e-07 0)
(8.8263456e-07 -2.6358933e-07 0)
(8.9298419e-07 -2.6152195e-07 0)
(9.0338946e-07 -2.5919902e-07 1.5394402e-29)
(9.1388815e-07 -2.566342e-07 0)
(9.2451284e-07 -2.5385008e-07 3.0783566e-29)
(9.3528897e-07 -2.5087644e-07 4.080553e-29)
(9.4623424e-07 -2.4774613e-07 -4.9562817e-29)
(9.5735674e-07 -2.4449397e-07 1.3891118e-28)
(9.6865439e-07 -2.4114797e-07 1.1221377e-27)
(9.8011499e-07 -2.3773253e-07 7.5269346e-28)
(9.9171332e-07 -2.3425485e-07 -5.2791614e-27)
(1.0034283e-06 -2.3071848e-07 -3.1458261e-27)
(1.0152492e-06 -2.271128e-07 7.9358742e-27)
(1.0271721e-06 -2.2347028e-07 -5.2553495e-27)
(1.0392891e-06 -2.1972669e-07 1.0425671e-26)
(1.0516851e-06 -2.1595337e-07 -6.24992e-27)
(1.0641257e-06 -2.1213836e-07 -2.8661206e-26)
(1.0765739e-06 -2.0788867e-07 3.341119e-26)
(1.0892189e-06 -2.037717e-07 -4.5763323e-26)
(1.1018191e-06 -1.9955291e-07 -1.9641745e-26)
(1.1148362e-06 -1.9707081e-07 -2.6994603e-26)
(1.1265412e-06 -1.9493325e-07 -8.089102e-26)
(1.1403266e-06 -1.9317035e-07 1.0241629e-25)
(1.1505813e-06 -1.8888453e-07 -2.3508761e-25)
(1.15998e-06 -1.8806032e-07 8.7301268e-25)
(1.1724421e-06 -1.8438244e-07 2.8536286e-24)
(7.1139968e-07 -3.0101207e-07 4.1497293e-26)
(7.2403893e-07 -2.9725959e-07 7.7193858e-26)
(7.367843e-07 -2.9391588e-07 -5.3206946e-27)
(7.5009067e-07 -2.9133575e-07 3.0311294e-26)
(7.6255861e-07 -2.8955923e-07 -2.6292211e-26)
(7.7436612e-07 -2.8812603e-07 8.6097042e-27)
(7.8575796e-07 -2.8689128e-07 2.8827213e-27)
(7.9688478e-07 -2.8579553e-07 -8.370204e-28)
(8.0783883e-07 -2.8479566e-07 4.3735299e-28)
(8.1866153e-07 -2.8385431e-07 1.3128923e-28)
(8.2936769e-07 -2.82934e-07 0)
(8.3996394e-07 -2.8199625e-07 0)
(8.5045704e-07 -2.8100148e-07 0)
(8.6085777e-07 -2.7991019e-07 0)
(8.7118289e-07 -2.7868486e-07 0)
(8.8145534e-07 -2.7729235e-07 0)
(8.9170407e-07 -2.7570617e-07 0)
(9.0196233e-07 -2.739083e-07 0)
(9.1226539e-07 -2.7189032e-07 0)
(9.226488e-07 -2.6965334e-07 0)
(9.33146e-07 -2.672074e-07 0)
(9.4378629e-07 -2.6457004e-07 2.4681156e-29)
(9.5459367e-07 -2.617643e-07 4.2179838e-30)
(9.6558546e-07 -2.5881601e-07 8.4369491e-30)
(9.7677236e-07 -2.5575188e-07 -3.8581892e-29)
(9.8815768e-07 -2.5259532e-07 -2.2490286e-28)
(9.9973816e-07 -2.4936512e-07 -4.0442688e-28)
(1.0115038e-06 -2.4607138e-07 2.8636728e-27)
(1.0234468e-06 -2.4271651e-07 2.5821325e-27)
(1.0355634e-06 -2.3929841e-07 -1.2878746e-27)
(1.047859e-06 -2.3582267e-07 5.9151893e-27)
(1.0603814e-06 -2.3227186e-07 -7.2002577e-28)
(1.0731631e-06 -2.2868821e-07 -1.1113704e-27)
(1.0861214e-06 -2.2508466e-07 1.6199109e-26)
(1.0992487e-06 -2.2134081e-07 -2.7495843e-26)
(1.1125794e-06 -2.176759e-07 1.9520637e-26)
(1.1260281e-06 -2.1406373e-07 -2.6930603e-26)
(1.1394711e-06 -2.109509e-07 6.7464799e-27)
(1.1528053e-06 -2.078616e-07 2.7485812e-26)
(1.1669798e-06 -2.0498549e-07 3.1608206e-26)
(1.181266e-06 -2.0298634e-07 -4.9246368e-26)
(1.1935893e-06 -1.98685e-07 8.6810623e-26)
(1.2041265e-06 -1.9268058e-07 4.2247171e-25)
(1.2156105e-06 -1.9445556e-07 5.2164581e-25)
(1.2289905e-06 -1.9284702e-07 -2.8142297e-24)
(7.3824145e-07 -3.1319252e-07 -3.6255706e-25)
(7.4975287e-07 -3.0876847e-07 4.0333933e-26)
(7.6183997e-07 -3.0524402e-07 2.2094462e-26)
(7.741068e-07 -3.0270239e-07 -7.9175563e-26)
(7.8569594e-07 -3.007676e-07 4.9413231e-26)
(7.9682825e-07 -2.9916747e-07 -5.5348078e-27)
(8.0765627e-07 -2.9779276e-07 3.1599515e-27)
(8.1829375e-07 -2.9657673e-07 -3.8990069e-28)
(8.288086e-07 -2.9546935e-07 -1.4911736e-28)
(8.3923064e-07 -2.9442837e-07 -1.4316011e-28)
(8.4957196e-07 -2.9341433e-07 2.471256e-29)
(8.5983996e-07 -2.9238936e-07 0)
(8.7004303e-07 -2.9131695e-07 0)
(8.801931e-07 -2.9016222e-07 0)
(8.9030692e-07 -2.8889305e-07 0)
(9.00406e-07 -2.8748161e-07 0)
(9.105166e-07 -2.8590581e-07 0)
(9.2066837e-07 -2.8415052e-07 0)
(9.308926e-07 -2.8220836e-07 0)
(9.4122093e-07 -2.8007959e-07 0)
(9.5168348e-07 -2.7777164e-07 0)
(9.6230712e-07 -2.7529795e-07 0)
(9.7311476e-07 -2.7267632e-07 0)
(9.8412431e-07 -2.6992696e-07 6.6840853e-30)
(9.9534827e-07 -2.6707056e-07 8.704166e-30)
(1.0067943e-06 -2.6412607e-07 1.5094571e-28)
(1.0184659e-06 -2.6110885e-07 -1.8948631e-28)
(1.0303628e-06 -2.5802922e-07 -5.6749152e-28)
(1.042486e-06 -2.5489166e-07 -1.6953135e-28)
(1.0548392e-06 -2.5169901e-07 3.0418129e-28)
(1.0674319e-06 -2.4845412e-07 -2.3180882e-27)
(1.0802912e-06 -2.4515792e-07 2.5008275e-28)
(1.0934361e-06 -2.4183756e-07 -1.0543683e-27)
(1.1068411e-06 -2.3851013e-07 8.9261495e-28)
(1.1204987e-06 -2.3514868e-07 -4.5612001e-27)
(1.1344106e-06 -2.3184867e-07 -5.742348e-27)
(1.148526e-06 -2.2863409e-07 -3.0248373e-26)
(1.162751e-06 -2.2564212e-07 3.2230019e-26)
(1.17718e-06 -2.2266532e-07 -1.7220128e-26)
(1.1920872e-06 -2.1977268e-07 1.3539194e-26)
(1.2069079e-06 -2.169186e-07 -2.1088947e-26)
(1.2212987e-06 -2.1298397e-07 -1.1610578e-26)
(1.2365346e-06 -2.1040869e-07 -7.0746617e-26)
(1.2505313e-06 -2.0730246e-07 1.1552871e-26)
(1.2626971e-06 -2.0300721e-07 8.4147327e-25)
(1.274706e-06 -2.0861352e-07 -6.5944037e-25)
(1.2924293e-06 -2.1181884e-07 9.7229177e-25)
(1.3063065e-06 -2.1018699e-07 -1.3564738e-24)
(7.5465279e-07 -3.241458e-07 1.9225734e-24)
(7.62071e-07 -3.2224923e-07 -2.646734e-25)
(7.7508197e-07 -3.1906694e-07 -1.3748148e-25)
(7.8640327e-07 -3.1582614e-07 -5.7610843e-26)
(7.9762773e-07 -3.133541e-07 4.04499e-26)
(8.0839321e-07 -3.1134319e-07 -1.6313704e-26)
(8.1884048e-07 -3.0965038e-07 4.7236845e-27)
(8.2908784e-07 -3.0818983e-07 -3.7086315e-27)
(8.3921966e-07 -3.0689663e-07 -6.5432182e-29)
(8.4928067e-07 -3.0571967e-07 -3.803284e-29)
(8.5928909e-07 -3.0461483e-07 7.0215774e-29)
(8.6925347e-07 -3.0354283e-07 0)
(8.7918057e-07 -3.0246729e-07 0)
(8.8907895e-07 -3.0135466e-07 0)
(8.9896064e-07 -3.0017403e-07 0)
(9.0884179e-07 -2.9889768e-07 0)
(9.1874244e-07 -2.97502e-07 0)
(9.2868652e-07 -2.9596843e-07 0)
(9.3870075e-07 -2.942842e-07 0)
(9.4881324e-07 -2.9244285e-07 0)
(9.5905258e-07 -2.9044414e-07 0)
(9.6944631e-07 -2.8829354e-07 0)
(9.8001954e-07 -2.860014e-07 0)
(9.9079446e-07 -2.8358158e-07 0)
(1.0017896e-06 -2.8105e-07 0)
(1.0130194e-06 -2.7842301e-07 1.4368165e-29)
(1.024495e-06 -2.7571604e-07 4.2162558e-30)
(1.0362247e-06 -2.7294204e-07 -1.7249712e-29)
(1.0482147e-06 -2.7011084e-07 1.4354619e-28)
(1.060472e-06 -2.6722892e-07 6.0382665e-29)
(1.0730051e-06 -2.6430189e-07 -2.2752194e-28)
(1.0858262e-06 -2.6133507e-07 -5.1273613e-29)
(1.0989539e-06 -2.5833615e-07 3.8681619e-28)
(1.1124032e-06 -2.5532535e-07 6.2917352e-28)
(1.1261709e-06 -2.5232053e-07 1.491749e-27)
(1.1402538e-06 -2.4932393e-07 1.3118042e-27)
(1.1546478e-06 -2.4637548e-07 -6.279128e-27)
(1.1693197e-06 -2.434971e-07 7.5102055e-27)
(1.1842265e-06 -2.4072901e-07 -1.2174696e-26)
(1.1994298e-06 -2.379889e-07 -8.4569049e-27)
(1.2150133e-06 -2.3532332e-07 1.1679212e-27)
(1.2307362e-06 -2.3269827e-07 4.6270069e-26)
(1.2465222e-06 -2.2966255e-07 -6.1001666e-26)
(1.2625699e-06 -2.2682956e-07 2.818811e-26)
(1.278496e-06 -2.2398927e-07 4.1641432e-26)
(1.2947966e-06 -2.231113e-07 -1.4290823e-25)
(1.3094131e-06 -2.2263819e-07 4.4756717e-27)
(1.3257366e-06 -2.2232886e-07 -3.304607e-25)
(1.3386055e-06 -2.1885385e-07 9.1387266e-25)
(1.3501159e-06 -2.2005245e-07 1.8404843e-25)
(1.3650035e-06 -2.1778562e-07 -9.7687678e-25)
(7.7578439e-07 -3.3915233e-07 -8.6127377e-25)
(7.7985362e-07 -3.3639208e-07 3.8356822e-25)
(7.915509e-07 -3.3230742e-07 -3.6468599e-26)
(8.0073417e-07 -3.2886128e-07 -5.7976245e-26)
(8.1075529e-07 -3.2577684e-07 5.4964405e-26)
(8.2079488e-07 -3.2331121e-07 -1.1930561e-26)
(8.3065558e-07 -3.212752e-07 1.4688119e-26)
(8.403803e-07 -3.1955234e-07 -9.1018496e-27)
(8.500257e-07 -3.1806029e-07 5.1473083e-28)
(8.5963379e-07 -3.1673645e-07 2.8339394e-28)
(8.6922443e-07 -3.1553055e-07 1.4554447e-28)
(8.7880426e-07 -3.1439945e-07 2.4718332e-29)
(8.8837694e-07 -3.1330543e-07 0)
(8.9794762e-07 -3.1221472e-07 0)
(9.0752388e-07 -3.1109697e-07 0)
(9.171171e-07 -3.0992493e-07 0)
(9.2674238e-07 -3.086747e-07 0)
(9.3641823e-07 -3.0732625e-07 0)
(9.4616651e-07 -3.0586396e-07 0)
(9.5601149e-07 -3.0427709e-07 0)
(9.6597871e-07 -3.0256011e-07 0)
(9.7609431e-07 -3.0071252e-07 0)
(9.8638385e-07 -2.9873847e-07 0)
(9.9687109e-07 -2.9664607e-07 0)
(1.0075778e-06 -2.9444631e-07 0)
(1.0185232e-06 -2.9215191e-07 0)
(1.0297232e-06 -2.8977624e-07 0)
(1.0411918e-06 -2.8733199e-07 0)
(1.052941e-06 -2.8483047e-07 0)
(1.0649813e-06 -2.8228119e-07 2.2200692e-29)
(1.0773236e-06 -2.7969162e-07 3.6558794e-29)
(1.0899802e-06 -2.7706898e-07 -9.0888712e-30)
(1.1029643e-06 -2.7442037e-07 -2.0415974e-29)
(1.1162919e-06 -2.717556e-07 4.0636705e-29)
(1.1299765e-06 -2.6909045e-07 -3.8541021e-28)
(1.1440234e-06 -2.6644096e-07 -5.1900786e-29)
(1.1584347e-06 -2.6381735e-07 1.2858703e-27)
(1.1732087e-06 -2.6123995e-07 2.8127621e-27)
(1.188329e-06 -2.5872267e-07 -3.4629277e-27)
(1.203778e-06 -2.5627396e-07 3.8689806e-27)
(1.2195833e-06 -2.5386637e-07 -4.2701304e-27)
(1.2357694e-06 -2.515255e-07 7.3848472e-27)