/*--------------------------------*- C++ -*----------------------------------*\
| =========                 |                                                 |
| \\      /  F ield         | OpenFOAM: The Open Source CFD Toolbox           |
|  \\    /   O peration     | Version:  2412                                  |
|   \\  /    A nd           | Website:  www.openfoam.com                      |
|    \\/     M anipulation  |                                                 |
\*---------------------------------------------------------------------------*/
FoamFile
{
    version     2.0;
    format      ascii;
    arch        "LSB;label=32;scalar=64";
    class       volScalarField;
    location    "15174";
    object      p;
}
// * * * * * * * * * * * * * * * * * * * * * * * * * * * * * * * * * * * * * //

dimensions      [0 2 -2 0 0 0 0];

internalField   nonuniform List<scalar> 
57534
(
0.00049369015
0.00047634626
0.00047782025
0.0009986714
0.00099856254
0.00099867686
0.00099905284
0.00099973097
0.0010007665
0.0010021904
0.0010037027
0.0010054716
0.0010111747
0.0010227563
0.0010012686
0.0010008433
0.0010005874
0.0010005392
0.0010007438
0.0010012512
0.0010021231
0.0010034658
0.0010052802
0.0010074357
0.0010143223
0.0010193685
0.0010456243
0.0010042491
0.0010035604
0.001002983
0.0010025482
0.0010022924
0.0010022586
0.0010024974
0.0010030631
0.0010040188
0.0010054668
0.0010072781
0.001008948
0.0010153832
0.0010176871
0.0010076072
0.0010067307
0.0010059128
0.0010051774
0.0010045522
0.0010040705
0.0010037716
0.0010037029
0.0010039216
0.0010044915
0.0010054988
0.0010070812
0.0010090919
0.0010112681
0.0010186037
0.0010275209
0.0009712494
0.00098966907
0.00098651783
0.00098882678
0.00098994528
0.00099243263
0.00099326838
0.00099419469
0.00099522505
0.000996488
0.00099787395
0.00099932883
0.0010008252
0.0010023487
0.0010038785
0.0010053995
0.0010068969
0.0010083585
0.0010097717
0.0010111265
0.0010124134
0.001013625
0.0010147549
0.0010157982
0.0010167509
0.0010176098
0.0010183725
0.0010190375
0.0010196036
0.0010200701
0.0010204369
0.0010132338
0.0010122609
0.0010112749
0.0010102888
0.0010093176
0.0010083786
0.0010074919
0.0010066813
0.0010059749
0.0010054065
0.0010050168
0.0010048567
0.0010049894
0.0010054923
0.0010064971
0.0010081524
0.0010101255
0.00101358
0.0010211058
0.0010359396
0.00097306129
0.00097236268
0.00098699307
0.00098722878
0.00099186754
0.00099249727
0.00099302309
0.00099392527
0.00099537795
0.00099699927
0.00099867114
0.0010003728
0.001002099
0.0010038254
0.0010055349
0.0010072128
0.0010088458
0.00101042
0.001011926
0.0010133538
0.0010146962
0.0010159472
0.001017102
0.0010181571
0.00101911
0.0010199585
0.0010207016
0.0010213384
0.0010218687
0.0010222925
0.0010209657
0.0010203322
0.001019623
0.0010188436
0.0010180001
0.0010170993
0.0010161488
0.0010151573
0.0010141343
0.0010130908
0.0010120393
0.0010109943
0.0010099723
0.0010089927
0.0010080782
0.001007256
0.0010065589
0.0010060273
0.0010057131
0.0010056844
0.0010060377
0.0010069863
0.0010087319
0.001011161
0.0010217259
0.0010341022
0.0010667946
0.00096776276
0.00098712368
0.00098663318
0.00099154073
0.00099198785
0.000992357
0.00099410252
0.00099604872
0.00099796855
0.00099989248
0.0010018393
0.001003781
0.0010056976
0.0010075715
0.0010093885
0.001011136
0.0010128022
0.0010143788
0.0010158582
0.001017235
0.001018505
0.0010196654
0.0010207141
0.0010216498
0.0010224718
0.0010231796
0.0010237735
0.0010242539
0.0010250598
0.0010249903
0.0010248167
0.0010245417
0.0010241685
0.0010237006
0.0010231417
0.0010224962
0.0010217689
0.001020965
0.0010200905
0.0010191517
0.001018156
0.0010171115
0.0010160273
0.0010149136
0.0010137823
0.0010126466
0.0010115219
0.001010426
0.0010093797
0.0010084075
0.0010075385
0.0010068075
0.0010062571
0.0010059362
0.0010058997
0.0010062811
0.0010070265
0.0010070042
0.0010128465
0.0010158585
0.00097259836
0.00098697986
0.00098504015
0.00099003449
0.00098994307
0.00099251881
0.00099500616
0.00099721661
0.00099938417
0.0010015737
0.0010037494
0.001005891
0.0010079797
0.0010099973
0.0010119306
0.0010137678
0.0010155008
0.0010171223
0.001018629
0.0010200172
0.0010212849
0.0010224309
0.0010234545
0.0010243558
0.0010251347
0.0010257918
0.0010263279
0.001026744
0.0010270415
0.0010272219
0.0010272871
0.0010272394
0.0010270812
0.0010268153
0.0010264447
0.0010259731
0.001025404
0.0010247418
0.0010239911
0.0010231568
0.0010222446
0.0010212605
0.0010202114
0.0010191048
0.001017949
0.0010167534
0.0010155286
0.0010142866
0.0010130411
0.0010118078
0.0010106047
0.001009453
0.001008377
0.0010074056
0.0010065719
0.001005911
0.0010054532
0.001005308
0.0010054177
0.0010044444
0.0010096502
0.0010183791
0.00096772206
0.00096766211
0.00099121651
0.00098589308
0.00098982504
0.0009939183
0.00099651781
0.00099886888
0.0010013165
0.0010037451
0.0010061301
0.0010084493
0.0010106845
0.0010128166
0.0010148339
0.0010167306
0.0010185005
0.0010201408
0.0010216494
0.0010230258
0.0010242697
0.0010253816
0.0010263619
0.0010272113
0.0010279309
0.0010285217
0.0010289851
0.0010293226
0.001029536
0.0010296274
0.0010295989
0.0010294533
0.0010291932
0.0010288219
0.0010283427
0.0010277593
0.0010270758
0.0010262965
0.0010254263
0.0010244703
0.0010234341
0.001022324
0.0010211467
0.0010199098
0.0010186216
0.0010172912
0.0010159291
0.001014547
0.0010131578
0.0010117767
0.0010104207
0.0010091094
0.0010078649
0.0010067134
0.0010056815
0.0010047905
0.0010041486
0.0010037426
0.0010022438
0.0010072101
0.0010180358
0.00096728152
0.00098499531
0.0009875555
0.00099449035
0.00099680542
0.00099863738
0.0010011774
0.0010038193
0.0010064399
0.0010089967
0.0010114645
0.0010138093
0.0010160195
0.0010180866
0.0010200078
0.0010217833
0.0010234134
0.0010248988
0.0010262406
0.0010274401
0.0010284988
0.0010294178
0.0010301987
0.0010308429
0.001031352
0.0010317278
0.0010319721
0.0010320872
0.0010320755
0.0010319396
0.0010316823
0.0010313068
0.0010308163
0.0010302145
0.0010295053
0.0010286928
0.0010277813
0.0010267758
0.0010256813
0.0010245033
0.0010232479
0.0010219215
0.0010205313
0.0010190849
0.001017591
0.0010160588
0.0010144988
0.0010129224
0.0010113423
0.0010097726
0.0010082291
0.0010067298
0.0010052898
0.0010039186
0.0010027088
0.0010016507
0.00099938805
0.0010034736
0.0010142014
0.00096543105
0.00099172995
0.00098898778
0.00099654081
0.00099801497
0.0010009094
0.0010039223
0.001006813
0.0010096236
0.0010123473
0.0010149214
0.0010173358
0.0010195812
0.0010216588
0.0010235712
0.0010253225
0.0010269154
0.0010283537
0.0010296396
0.0010307752
0.0010317624
0.0010326031
0.0010332991
0.0010338521
0.0010342642
0.0010345373
0.0010346738
0.0010346762
0.0010345472
0.0010342895
0.0010339064
0.0010334011
0.0010327771
0.001032038
0.0010311877
0.0010302303
0.0010291701
0.0010280117
0.0010267599
0.0010254197
0.0010239968
0.0010224967
0.0010209258
0.0010192906
0.001017598
0.0010158555
0.0010140709
0.0010122523
0.0010104083
0.0010085468
0.0010066773
0.0010048052
0.001002921
0.0010010893
0.00099925519
0.00099594855
0.00099832786
0.0010073311
0.00096629344
0.00096544828
0.00099856697
0.00099675579
0.00099999284
0.0010040121
0.0010073406
0.0010103895
0.0010133791
0.0010161879
0.0010188114
0.0010212371
0.0010234702
0.0010255173
0.0010273876
0.0010290866
0.0010306193
0.0010319893
0.0010331999
0.0010342536
0.0010351523
0.0010358982
0.0010364932
0.0010369394
0.001037239
0.0010373945
0.0010374083
0.0010372832
0.0010370222
0.0010366282
0.0010361046
0.0010354546
0.0010346817
0.0010337896
0.0010327819
0.0010316625
0.0010304353
0.0010291045
0.0010276743
0.0010261489
0.0010245329
0.0010228308
0.0010210473
0.0010191869
0.0010172542
0.0010152533
0.001013188
0.0010110614
0.0010088752
0.0010066295
0.00100432
0.0010019283
0.0009995038
0.00099699387
0.00099306425
0.00099471442
0.0010019934
0.00097008629
0.0010007215
0.00099885996
0.0010035191
0.0010079353
0.0010112876
0.0010145611
0.0010176154
0.0010204613
0.0010230722
0.0010254607
0.0010276411
0.0010296253
0.0010314247
0.0010330476
0.0010344989
0.0010357819
0.0010368997
0.0010378544
0.0010386481
0.001039283
0.0010397611
0.0010400848
0.0010402566
0.0010402791
0.0010401552
0.0010398876
0.0010394796
0.0010389343
0.0010382549
0.0010374447
0.001036507
0.0010354452
0.0010342626
0.0010329626
0.0010315486
0.0010300238
0.0010283916
0.0010266551
0.0010248173
0.0010228809
0.0010208483
0.0010187212
0.0010165004
0.0010141854
0.0010117735
0.0010092596
0.001006635
0.0010038817
0.0010009608
0.00099787347
0.00099450994
0.00098962322
0.00098920791
0.0009936741
0.0009774325
0.0010047793
0.0010036942
0.0010085852
0.0010124321
0.0010160407
0.0010192872
0.0010223403
0.0010251185
0.00102765
0.001029953
0.0010320444
0.0010339398
0.0010356485
0.0010371768
0.0010385295
0.0010397089
0.0010407174
0.0010415568
0.0010422294
0.0010427372
0.0010430825
0.001043268
0.0010432964
0.0010431706
0.0010428935
0.0010424683
0.0010418981
0.001041186
0.0010403351
0.0010393485
0.0010382292
0.0010369801
0.0010356039
0.0010341034
0.0010324809
0.0010307387
0.0010288787
0.0010269025
0.0010248111
0.0010226048
0.0010202827
0.0010178428
0.0010152809
0.0010125899
0.001009759
0.0010067711
0.0010035988
0.0010001885
0.00099649979
0.00099244134
0.00098711015
0.00098420604
0.00098539449
0.0010201996
0.00097694821
0.0010094813
0.0010096841
0.0010132766
0.0010177926
0.0010212717
0.0010245194
0.0010274247
0.0010300697
0.0010324763
0.0010346609
0.0010366416
0.0010384299
0.0010400318
0.0010414506
0.0010426893
0.0010437494
0.0010446325
0.0010453405
0.0010458755
0.00104624
0.0010464364
0.0010464678
0.0010463372
0.0010460475
0.001045602
0.0010450038
0.0010442559
0.0010433613
0.0010423228
0.0010411431
0.0010398247
0.0010383697
0.0010367802
0.0010350578
0.0010332038
0.0010312189
0.0010291034
0.0010268568
0.0010244776
0.0010219631
0.0010193087
0.0010165073
0.0010135486
0.0010104172
0.0010070903
0.0010035346
0.00099968925
0.00099548465
0.00099089645
0.00098511714
0.00097758161
0.00098289361
0.00098771922
0.0009812948
0.0010166102
0.0010143753
0.0010195563
0.0010234546
0.0010270242
0.0010300225
0.0010327414
0.0010352227
0.0010374822
0.0010395376
0.0010413979
0.001043069
0.0010445522
0.0010458484
0.0010469583
0.0010478831
0.0010486245
0.0010491844
0.0010495653
0.0010497699
0.0010498013
0.0010496627
0.0010493574
0.0010488884
0.0010482592
0.0010474725
0.0010465314
0.0010454384
0.0010441959
0.0010428059
0.0010412703
0.0010395902
0.0010377667
0.0010358
0.0010336901
0.0010314359
0.0010290358
0.0010264868
0.0010237847
0.0010209233
0.0010178939
0.0010146843
0.001011276
0.0010076448
0.0010037546
0.00099954759
0.00099493956
0.00098990254
0.00098406289
0.00097621217
0.00097410051
0.00096973248
0.00099416056
0.0010206195
0.001022163
0.0010257936
0.0010298323
0.0010329034
0.0010356707
0.001038197
0.0010405091
0.0010426289
0.0010445581
0.0010462955
0.001047841
0.0010491935
0.001050352
0.0010513171
0.0010520898
0.0010526721
0.0010530667
0.0010532765
0.0010533048
0.0010531551
0.0010528308
0.0010523353
0.001051672
0.0010508438
0.0010498535
0.0010487037
0.0010473963
0.0010459331
0.0010443154
0.0010425439
0.0010406189
0.0010385399
0.0010363059
0.0010339149
0.0010313643
0.00102865
0.0010257669
0.0010227079
0.0010194634
0.0010160205
0.0010123619
0.0010084623
0.0010042845
0.0009997684
0.00099480815
0.00098927597
0.00098278506
0.00097376356
0.00096505982
0.00095812939
0.00097907572
0.00098399874
0.0010287939
0.0010310799
0.0010341727
0.0010363368
0.0010388904
0.0010413984
0.0010437367
0.0010459118
0.0010479073
0.0010497132
0.0010513227
0.0010527319
0.0010539389
0.0010549429
0.0010557451
0.0010563474
0.0010567527
0.0010569644
0.0010569862
0.001056822
0.0010564754
0.0010559502
0.0010552498
0.0010543773
0.0010533354
0.0010521266
0.0010507527
0.0010492151
0.0010475146
0.0010456515
0.0010436254
0.0010414352
0.0010390791
0.0010365542
0.0010338572
0.0010309831
0.0010279264
0.0010246798
0.0010212343
0.0010175787
0.0010136986
0.0010095736
0.0010051775
0.0010004726
0.00099539317
0.000989865
0.00098378763
0.00097630371
0.00096745817
0.00096973175
0.00095990482
0.0010224451
0.0010261519
0.0010380008
0.0010399314
0.0010422284
0.0010447743
0.001047153
0.0010493831
0.0010514488
0.0010533269
0.001055004
0.0010564724
0.001057728
0.0010587702
0.0010595999
0.0010602194
0.0010606322
0.0010608422
0.0010608538
0.0010606713
0.0010602988
0.0010597405
0.0010589999
0.0010580803
0.0010569846
0.0010557149
0.0010542731
0.0010526602
0.0010508767
0.0010489225
0.0010467965
0.001044497
0.0010420214
0.0010393664
0.0010365275
0.0010334997
0.0010302768
0.0010268518
0.001023217
0.0010193636
0.0010152816
0.0010109604
0.0010063888
0.0010015513
0.00099642797
0.00099099846
0.00098527024
0.00097908794
0.0009723749
0.00096715171
0.00095930896
0.0010047677
0.001019829
0.0010384994
0.0010384526
0.0010433787
0.001045657
0.0010481717
0.0010506676
0.0010530081
0.0010551717
0.0010571381
0.0010588914
0.001060423
0.0010617294
0.0010628092
0.0010636642
0.0010642978
0.0010647142
0.0010649185
0.0010649156
0.0010647106
0.0010643083
0.0010637132
0.0010629292
0.0010619598
0.0010608079
0.0010594757
0.0010579648
0.0010562762
0.00105441
0.0010523655
0.0010501414
0.0010477352
0.0010451437
0.0010423627
0.0010393874
0.0010362117
0.0010328296
0.0010292342
0.0010254189
0.0010213778
0.0010171061
0.0010126008
0.0010078631
0.0010029015
0.00099772997
0.00099237531
0.00098689246
0.00098132868
0.00097594537
0.0009718961
0.00096742685
0.00096255
0.0009921607
0.001017215
0.0010420311
0.0010473044
0.0010497491
0.0010518731
0.0010543864
0.0010568382
0.0010591022
0.0010611629
0.0010629997
0.0010645992
0.0010659566
0.0010670722
0.0010679495
0.001068593
0.0010690084
0.0010692018
0.0010691795
0.0010689473
0.0010685108
0.001067875
0.0010670442
0.0010660221
0.0010648118
0.0010634155
0.0010618347
0.0010600702
0.0010581219
0.0010559887
0.0010536688
0.0010511591
0.0010484558
0.0010455539
0.0010424477
0.0010391305
0.0010355955
0.001031836
0.001027846
0.0010236213
0.0010191608
0.0010144687
0.0010095563
0.0010044474
0.00099918216
0.00099382017
0.00098844721
0.00098316029
0.00097816592
0.00097404479
0.00097057646
0.00096926575
0.0009617072
0.00099199429
0.0010234384
0.001038233
0.0010521667
0.0010552726
0.0010579774
0.0010607492
0.0010632129
0.0010654047
0.0010673404
0.0010690132
0.0010704229
0.0010715727
0.001072468
0.001073116
0.0010735244
0.001073701
0.0010736535
0.0010733887
0.001072913
0.0010722321
0.0010713508
0.001070273
0.001069002
0.0010675401
0.0010658888
0.0010640485
0.0010620192
0.0010597992
0.0010573864
0.0010547772
0.0010519669
0.0010489498
0.001045719
0.0010422669
0.0010385856
0.0010346674
0.001030506
0.0010260979
0.0010214434
0.0010165503
0.0010114372
0.001006138
0.0010007082
0.000995229
0.00098980964
0.0009845772
0.00097970417
0.00097545603
0.00097180335
0.00096989079
0.00096767946
0.00096138175
0.00098700089
0.001018807
0.0010497324
0.0010550194
0.0010604935
0.001062362
0.0010650028
0.0010676025
0.0010699123
0.001071944
0.0010736902
0.0010751489
0.001076327
0.0010772335
0.0010778785
0.0010782723
0.0010784247
0.0010783449
0.0010780412
0.0010775208
0.0010767901
0.0010758543
0.0010747176
0.0010733836
0.0010718546
0.0010701321
0.0010682165
0.0010661074
0.0010638032
0.001061301
0.0010585969
0.0010556854
0.0010525597
0.0010492118
0.0010456324
0.0010418117
0.0010377405
0.0010334106
0.0010288171
0.0010239591
0.0010188441
0.0010134924
0.0010079451
0.0010022663
0.00099655229
0.00099092735
0.00098553776
0.00098055203
0.00097614235
0.00097230322
0.00096937841
0.000967271
0.00096607007
0.00095957814
0.0009823236
0.0010399378
0.0010481231
0.0010631635
0.0010663206
0.0010691996
0.001072145
0.001074668
0.001076824
0.0010786486
0.0010801531
0.0010813522
0.0010822603
0.0010828924
0.0010832619
0.001083381
0.0010832608
0.0010829109
0.0010823395
0.0010815536
0.0010805589
0.0010793601
0.0010779607
0.0010763632
0.001074569
0.0010725786
0.0010703914
0.0010680056
0.0010654182
0.0010626246
0.0010596186
0.0010563924
0.0010529363
0.0010492387
0.0010452873
0.0010410702
0.0010365757
0.0010317958
0.0010267246
0.0010213648
0.0010157348
0.0010098716
0.0010038463
0.00099777061
0.00099178679
0.00098606098
0.00098077403
0.00097607441
0.00097201392
0.00096869001
0.00096597972
0.00096444569
0.000963178
0.00095747228
0.00097783342
0.0010255777
0.00105686
0.0010651331
0.0010717536
0.0010741353
0.0010770734
0.0010797723
0.0010820369
0.0010839252
0.0010854616
0.0010866674
0.0010875635
0.0010881695
0.0010885024
0.0010885773
0.0010884071
0.0010880027
0.0010873733
0.0010865265
0.0010854683
0.0010842038
0.0010827364
0.0010810689
0.0010792026
0.0010771381
0.0010748747
0.0010724105
0.0010697424
0.0010668655
0.0010637729
0.0010604558
0.0010569027
0.0010530988
0.0010490289
0.0010446768
0.0010400255
0.001035062
0.0010297717
0.0010241463
0.0010181914
0.0010119409
0.0010054684
0.00099889944
0.00099239446
0.00098615583
0.000980416
0.00097531517
0.00097093233
0.00096732873
0.00096440685
0.00096223966
0.00096095743
0.00096001833
0.00095520077
0.00097162866
0.0010454716
0.0010585252
0.001075309
0.0010791517
0.0010822552
0.001085219
0.0010876191
0.0010895551
0.0010911021
0.0010922941
0.0010931584
0.0010937209
0.001094002
0.0010940197
0.0010937885
0.0010933203
0.0010926253
0.0010917113
0.0010905848
0.0010892507
0.0010877129
0.0010859738
0.0010840351
0.0010818971
0.0010795594
0.0010770201
0.0010742763
0.001071323
0.001068153
0.0010647564
0.0010611194
0.0010572247
0.0010530508
0.0010485782
0.0010437835
0.001038649
0.0010331435
0.0010272396
0.0010209256
0.0010142126
0.0010071664
0.00099994664
0.00099274112
0.000985798
0.00097945555
0.00097385516
0.0009690846
0.00096519691
0.00096214689
0.00095990103
0.00095840391
0.00095795836
0.00095826541
0.00095489252
0.00097172532
0.0010316246
0.001067242
0.0010778317
0.0010855827
0.0010882467
0.0010911386
0.0010936296
0.0010955781
0.0010971003
0.0010982487
0.0010990568
0.0010995548
0.0010997666
0.0010997123
0.0010994078
0.0010988659
0.0010980969
0.0010971093
0.0010959093
0.0010945021
0.0010928911
0.001091079
0.0010890673
0.0010868565
0.0010844463
0.0010818353
0.0010790209
0.0010759987
0.0010727614
0.0010692984
0.0010655958
0.0010616283
0.0010573692
0.0010527988
0.0010478799
0.0010425992
0.0010369012
0.001030726
0.0010240291
0.0010167808
0.0010090259
0.0010009707
0.00099282563
0.00098491683
0.00097781062
0.00097161016
0.00096639558
0.00096221603
0.00095901967
0.00095675759
0.00095535353
0.00095484485
0.00095564021
0.00095763894
0.00095761053
0.00097337855
0.0010626329
0.0010769377
0.001092044
0.0010951759
0.0010977038
0.0011001713
0.0011020575
0.0011034922
0.0011045522
0.0011052705
0.0011056779
0.0011057996
0.0011056568
0.0011052658
0.0011046395
0.0011037883
0.0011027204
0.0011014419
0.0010999577
0.001098271
0.0010963844
0.0010942991
0.0010920159
0.0010895347
0.0010868548
0.0010839744
0.0010808906
0.0010775966
0.0010740824
0.0010703344
0.0010663168
0.0010619944
0.001057354
0.0010523402
0.001046962
0.0010411238
0.0010347179
0.0010276468
0.001019805
0.0010111713
0.001002052
0.00099264736
0.00098337222
0.00097532157
0.00096842752
0.00096272963
0.00095827722
0.00095495731
0.00095268125
0.00095136755
0.00095097864
0.00095159146
0.00095366824
0.00095791196
0.00096013598
0.0009732904
0.0010463229
0.0010838251
0.0010968257
0.0011031528
0.0011049062
0.0011071598
0.0011089593
0.0011102688
0.0011112023
0.0011117986
0.001112089
0.0011120996
0.0011118513
0.0011113603
0.0011106391
0.0011096974
0.0011085428
0.001107181
0.0011056162
0.0011038514
0.0011018886
0.0010997291
0.0010973734
0.0010948221
0.0010920755
0.0010891332
0.0010859948
0.0010826537
0.0010791011
0.0010753323
0.0010712936
0.0010669345
0.001062269
0.0010571901
0.0010518011
0.0010459246
0.0010393733
0.001032001
0.0010235231
0.0010137737
0.0010032946
0.0009921439
0.00098081291
0.00097168449
0.00096406263
0.00095787393
0.00095322459
0.00094985383
0.00094762129
0.00094641413
0.00094614092
0.00094676903
0.00094834463
0.00095152203
0.00095560104
0.00095672219
0.00098539954
0.00096955728
0.0010884161
0.0011003159
0.0011107245
0.0011125315
0.0011146203
0.0011163066
0.0011174418
0.0011182009
0.0011186386
0.0011187834
0.0011186611
0.0011182905
0.0011176866
0.0011168603
0.0011158203
0.0011145731
0.0011131236
0.0011114752
0.0011096302
0.00110759
0.0011053555
0.0011029274
0.0011003063
0.0010974926
0.0010944885
0.0010912996
0.0010879198
0.0010843452
0.0010805989
0.0010765835
0.0010722129
0.0010675846
0.0010624571
0.0010571675
0.0010513881
0.0010448858
0.0010375295
0.0010284823
0.0010172403
0.0010050617
0.00099145036
0.00097673549
0.0009664101
0.00095810708
0.00095150101
0.00094685623
0.00094361814
0.00094155504
0.00094053165
0.00094041378
0.00094113665
0.00094261979
0.00094493336
0.00094784286
0.00094999118
0.0009540878
0.00095535825
0.00096058643
0.00057037037
0.00056628926
0.00056247553
0.00056058902
0.00055798794
0.0010927978
0.0011016919
0.0011181965
0.0011209613
0.0011225982
0.0011240903
0.0011250019
0.001125537
0.001125778
0.0011257495
0.0011254734
0.0011249651
0.0011242365
0.0011232964
0.0011221513
0.0011208066
0.0011192658
0.0011175312
0.0011156043
0.0011134855
0.0011111751
0.0011086729
0.0011059798
0.0011030974
0.0011000308
0.0010967936
0.001093379
0.0010897969
0.0010861435
0.0010822198
0.0010778494
0.0010733626
0.0010681645
0.001063169
0.0010577188
0.0010516967
0.0010445587
0.0010358356
0.0010229117
0.0010089497
0.00099222398
0.00097133907
0.00095944676
0.00095038779
0.00094324988
0.00093893111
0.00093610195
0.00093440962
0.00093375193
0.00093387321
0.00093475715
0.00093631102
0.00093847881
0.00094108681
0.00094356218
0.00094591601
0.00095157724
0.00095372733
0.00096090053
0.00058262142
0.00057836351
0.000574518
0.00057082209
0.00056738216
0.00056414804
0.00056104292
0.0010773846
0.0011135529
0.0011274171
0.0011316436
0.0011316813
0.0011324812
0.0011329875
0.0011332071
0.0011332013
0.00113297
0.0011325211
0.0011318621
0.0011309993
0.0011299381
0.0011286828
0.0011272368
0.0011256021
0.00112378
0.0011217711
0.0011195734
0.0011171863
0.0011146079
0.0011118399
0.0011088826
0.0011057443
0.001102461
0.001099012
0.0010954235
0.0010919833
0.0010882866
0.0010839982
0.0010800908
0.0010743713
0.0010706658
0.0010665551
0.0010611664
0.0010517356
0.0010428956
0.0010268703
0.0010103468
0.00098827329
0.00095274229
0.00094714256
0.00094050144
0.00093281573
0.00092922351
0.00092719739
0.00092613731
0.00092607906
0.00092659055
0.00092770916
0.00092936817
0.00093151493
0.00093401391
0.00093666231
0.00093945689
0.00094342066
0.00094711691
0.0009486339
0.00095642412
0.00094579028
0.00059754894
0.00058852334
0.00058427839
0.00058047579
0.00057671552
0.00057322201
0.00056996411
0.00056683676
0.0011279808
0.0011388443
0.0011424169
0.0011410611
0.0011411684
0.0011412402
0.0011411245
0.0011408566
0.0011404107
0.0011397804
0.0011389635
0.001137961
0.0011367745
0.0011354056
0.001133856
0.0011321263
0.0011302162
0.0011281244
0.0011258482
0.0011233845
0.0011207291
0.0011178811
0.0011148392
0.0011116149
0.0011082886
0.0011047773
0.0011011156
0.0010982259
0.0010953318
0.0010910328
0.0010884208
0.0010792219
0.0010753433
0.0010710176
0.0010630562
0.001080039
0.0010588263
0.0010307391
0.001017012
0.0009840585
0.00090998403
0.00092894906
0.00092325271
0.00091765578
0.00091723722
0.00091683587
0.00091669145
0.00091756815
0.00091862594
0.0009201299
0.000921986
0.00092420273
0.00092667706
0.0009293063
0.00093211132
0.00093542783
0.00093914763
0.00094036693
0.00094125081
0.00094065182
0.00094308944
0.0006034265
0.00059763626
0.00059334718
0.000589597
0.00058592038
0.00058232004
0.00057890436
0.00057564077
0.00057247295
0.001140718
0.001146165
0.001151261
0.001149946
0.0011497763
0.0011495696
0.0011491872
0.0011486839
0.0011480336
0.0011472247
0.00114625
0.0011451067
0.0011437933
0.0011423096
0.0011406556
0.0011388311
0.0011368346
0.0011346627
0.00113231
0.0011297692
0.0011270331
0.0011241017
0.0011209664
0.0011176297
0.0011142737
0.0011106224
0.0011067082
0.0011052444
0.0011030694
0.0010949599
0.0010868852
0.0010907338
0.001075119
0.001053556
0.001038381
0.0010537561
0.00086692033
0.00091662528
0.00089483701
0.00089581829
0.00090405077
0.00090636348
0.00090675916
0.000908575
0.00091014162
0.00091211598
0.00091425304
0.00091666706
0.0009192157
0.00092186878
0.00092460318
0.00092747181
0.00093032383
0.00093217949
0.00093354352
0.00093511704
0.00093644219
0.00093852099
0.00093232033
0.00060904747
0.00060544424
0.00060246769
0.00059859378
0.00059496841
0.00059138237
0.00058787268
0.00058448587
0.0005812168
0.00057802199
0.0011499727
0.0011557291
0.0011606635
0.0011589996
0.0011584989
0.0011580121
0.0011573799
0.0011566565
0.0011558134
0.0011548329
0.0011537043
0.0011524219
0.0011509822
0.0011493838
0.0011476267
0.0011457088
0.0011436278
0.0011413792
0.0011389531
0.00113634
0.0011335284
0.0011305172
0.001127269
0.0011237362
0.0011203861
0.0011164144
0.0011114132
0.0011116252
0.0011038162
0.0011057202
0.0010771528
0.0010567825
0.00088579559
0.00090203019
0.00088626002
0.00089295943
0.00089580574
0.00089945008
0.0009012996
0.00090379068
0.00090624235
0.0009089705
0.00091166665
0.00091441588
0.0009171587
0.00091986264
0.00092240799
0.00092444656
0.00092624388
0.00092806913
0.0009287431
0.0009302423
0.00093016965
0.00093040988
0.0006197026
0.00061378549
0.00061106835
0.00060753974
0.00060381655
0.00060024977
0.00059673873
0.00059330295
0.00058996215
0.00058672279
0.0005835452
0.0011633703
0.0011686572
0.0011709075
0.0011682898
0.0011673233
0.0011665334
0.0011656669
0.0011647456
0.0011637268
0.0011625863
0.0011613111
0.0011598934
0.0011583292
0.0011566174
0.0011547578
0.0011527495
0.0011505891
0.0011482699
0.0011457826
0.0011431129
0.0011402443
0.0011371845
0.0011338272
0.0011300114
0.0011269433
0.0011216212
0.0011119988
0.0011131426
0.0011136568
0.0010941901
0.00086942538
0.00087685296
0.00088018207
0.00089018846
0.00089251483
0.00089547801
0.00089802249
0.00090116498
0.0009040733
0.00090698601
0.00090979796
0.00091248414
0.00091495565
0.00091705907
0.00091892414
0.0009206573
0.00092191275
0.00092327822
0.00092425104
0.00092583301
0.00092586151
0.00092460797
0.00063039389
0.00062257445
0.00061947289
0.00061601538
0.00061245738
0.00060890846
0.00060543389
0.00060201076
0.00059865359
0.00059536769
0.00059218091
0.00058903681
0.0011687336
0.0011761406
0.0011790946
0.0011767863
0.0011758375
0.0011749668
0.001173976
0.0011729148
0.0011717523
0.0011704704
0.0011690578
0.0011675097
0.0011658231
0.0011639987
0.001162038
0.0011599415
0.0011577073
0.0011553306
0.0011528047
0.0011501186
0.001147265
0.0011443097
0.001141086
0.001137383
0.0011360603
0.0011277102
0.0011183145
0.0011036932
0.0010875284
0.00086531843
0.00087991271
0.00087779945
0.00088184568
0.00088750669
0.00088968982
0.00089331866
0.00089642986
0.00089961725
0.00090260636
0.00090535968
0.00090785668
0.00091003263
0.00091195947
0.00091368243
0.00091511495
0.00091651363
0.00091765341
0.0009181847
0.00092103839
0.00092168734
0.00092164389
0.00063576216
0.00063078318
0.00062773981
0.00062420622
0.00062079277
0.00061737438
0.00061395133
0.00061056665
0.00060722877
0.00060394687
0.00060070771
0.00059758801
0.00059458606
0.0011745939
0.0011835411
0.0011872331
0.0011852049
0.0011843159
0.0011834177
0.0011823459
0.0011811763
0.0011798908
0.0011784808
0.0011769385
0.0011752632
0.0011734543
0.0011715159
0.0011694518
0.001167266
0.0011649618
0.0011625379
0.0011599941
0.0011573196
0.001154497
0.0011515749
0.0011478452
0.001142271
0.0011391073
0.0011364022
0.0010914983
0.00087256682
0.00087233891
0.00087843832
0.00088031811
0.00088529988
0.00088865615
0.00089230471
0.00089557405
0.00089848127
0.00090106768
0.00090331469
0.00090529766
0.00090704903
0.00090856325
0.00090997276
0.00091122325
0.00091219005
0.00091363025
0.00091452409
0.00091620786
0.00091328975
0.00091575235
0.00064098228
0.00063791051
0.00063584649
0.00063235248
0.00062896999
0.00062565112
0.00062231238
0.00061897726
0.0006156779
0.00061243587
0.00060926944
0.00060617344
0.0006036209
0.00060208174
0.00059826269
0.00059222384
0.0011817274
0.0011914669
0.0011955727
0.0011937207
0.0011928702
0.0011919479
0.0011908095
0.0011895466
0.0011881512
0.0011866196
0.0011849508
0.0011831473
0.001181213
0.001179156
0.0011769852
0.0011747139
0.0011723607
0.0011699385
0.0011674669
0.0011649386
0.0011622369
0.0011592934
0.0011554451
0.0011541754
0.0011344831
0.0011190166
0.00085632426
0.00086726725
0.0008693689
0.00087719709
0.00088088979
0.00088518501
0.00088879705
0.00089188817
0.00089458085
0.00089688242
0.00089891196
0.00090069626
0.00090225638
0.00090366198
0.00090490484
0.00090597095
0.00090704078
0.00090757032
0.00090772641
0.00091094078
0.00090993978
0.0008966936
0.0009030935
0.00064953813
0.00064536321
0.00064363582
0.00064046403
0.0006370931
0.00063381209
0.00063053356
0.000627248
0.00062397438
0.00062073279
0.00061755325
0.00061440822
0.00061120108
0.00060893915
0.00060522661
0.00059071058
0.0011904409
0.0012003746
0.0012043353
0.0012024748
0.0012015883
0.0012006096
0.0011993993
0.0011980459
0.0011965444
0.0011948933
0.0011930968
0.0011911599
0.0011890914
0.0011869027
0.0011846127
0.0011822486
0.0011798477
0.0011774432
0.0011750754
0.0011726034
0.0011694985
0.001166816
0.0011658492
0.0011329703
0.00086632622
0.0008687187
0.00086885987
0.00087415693
0.00087889995
0.00088253113
0.00088567346
0.00088842474
0.0008907254
0.00089278464
0.0008945987
0.00089619582
0.00089762454
0.00089888817
0.0009000036
0.00090103218
0.0009017558
0.00090207581
0.00090285307
0.00090114843
0.0008985563
0.00089995582
0.00089184366
0.00089982297
0.00065964707
0.00065383015
0.00065166051
0.00064846208
0.00064517949
0.00064191779
0.00063866755
0.00063541623
0.00063216971
0.00062893808
0.00062573251
0.00062254247
0.00061914841
0.0006155327
0.00061436755
0.00061249766
0.00061556705
0.0012027637
0.0012116848
0.0012139546
0.0012116215
0.001210541
0.0012094429
0.0012081421
0.0012066944
0.0012050848
0.0012033109
0.0012013795
0.0011992986
0.0011970815
0.001194747
0.0011923242
0.0011898629
0.0011874404
0.0011851254
0.0011829079
0.0011803088
0.0011776407
0.0011812092
0.001150869
0.00085999831
0.00086733973
0.00087306954
0.00087666219
0.0008797734
0.00088257825
0.00088481429
0.0008868923
0.00088871938
0.0008903417
0.00089181695
0.00089312484
0.00089428501
0.00089529718
0.00089605479
0.00089643373
0.00089654201