/*--------------------------------*- C++ -*----------------------------------*\
| =========                 |                                                 |
| \\      /  F ield         | OpenFOAM: The Open Source CFD Toolbox           |
|  \\    /   O peration     | Version:  2412                                  |
|   \\  /    A nd           | Website:  www.openfoam.com                      |
|    \\/     M anipulation  |                                                 |
\*---------------------------------------------------------------------------*/
FoamFile
{
    version     2.0;
    format      ascii;
    arch        "LSB;label=32;scalar=64";
    class       surfaceScalarField;
    location    "15174";
    object      phi;
}
// * * * * * * * * * * * * * * * * * * * * * * * * * * * * * * * * * * * * * //

dimensions      [0 3 -1 0 0 0 0];

oriented        oriented;

internalField   nonuniform List<scalar> 
111095
(
6.5363006e-24
-3.6029345e-24
8.3870659e-24
1.7777609e-25
5.317608e-26
6.9743572e-24
-8.679402e-24
8.6948681e-24
-6.9898234e-24
6.9477537e-24
-8.6187705e-24
8.6453741e-24
6.9104992e-24
-8.5588719e-24
8.5961264e-24
6.862067e-24
-8.5015644e-24
8.5499966e-24
6.8010348e-24
-8.451606e-24
8.5126382e-24
6.7197474e-24
-8.4139258e-24
8.4952132e-24
6.5971697e-24
-8.3885495e-24
8.5111272e-24
6.3792504e-24
-8.3441621e-24
8.5620815e-24
5.9249368e-24
-8.1687762e-24
8.6230898e-24
4.7854901e-24
-7.5329127e-24
8.6723594e-24
-6.1636856e-24
8.4891059e-24
6.9470751e-24
-8.7983038e-24
8.797709e-24
-6.9464804e-24
6.9358981e-24
-8.7280233e-24
8.7392003e-24
6.9127801e-24
-8.6562839e-24
6.8778815e-24
-8.583872e-24
6.8311759e-24
-8.5121662e-24
6.773479e-24
-8.4438676e-24
6.7046059e-24
-8.3827329e-24
6.6235927e-24
-8.3329126e-24
6.5295659e-24
-8.2945227e-24
6.4522818e-24
-8.266878e-24
6.5401914e-24
-8.2566859e-24
9.7399361e-24
-1.0732657e-23
6.9068815e-24
-8.9497365e-24
8.9302436e-24
-6.8873886e-24
6.914555e-24
-8.8736287e-24
8.8659552e-24
6.910044e-24
-8.7937927e-24
6.8931607e-24
-8.7111401e-24
6.8633884e-24
-8.6265115e-24
6.8210723e-24
-8.541556e-24
6.7666336e-24
-8.4577276e-24
6.701814e-24
-8.379048e-24
6.6274171e-24
-8.308336e-24
6.539259e-24
-8.2447545e-24
6.4234974e-24
-8.1787611e-24
6.272046e-24
-8.1154266e-24
6.1582535e-24
-8.1428933e-24
-8.101911e-24
6.8433853e-24
-9.1284797e-24
9.0887695e-24
-6.8036752e-24
6.8716798e-24
-9.0500985e-24
9.021804e-24
6.8880936e-24
-8.9661504e-24
6.8921814e-24
-8.8777165e-24
6.8835224e-24
-8.7851337e-24
6.8617304e-24
-8.6893481e-24
6.8267233e-24
-8.5915045e-24
6.7785959e-24
-8.4934286e-24
6.7193414e-24
-8.398473e-24
6.6528161e-24
-8.3125227e-24
6.5838149e-24
-8.2393347e-24
6.5067453e-24
-8.167685e-24
6.3760416e-24
-8.0480573e-24
6.0565514e-24
-7.7959365e-24
5.3055613e-24
-7.3919031e-24
-7.0783044e-24
1.4455243e-24
2.9223715e-24
1.6640084e-24
-3.1531846e-24
2.9347004e-24
1.6227494e-24
-3.071054e-24
3.1123129e-24
1.629503e-24
-3.3175464e-24
3.3107928e-24
1.6534978e-24
-3.5443365e-24
3.5203418e-24
1.6805184e-24
-3.7543334e-24
3.7273127e-24
1.7044335e-24
-3.9556516e-24
3.9317365e-24
1.734167e-24
-4.1725697e-24
4.1428362e-24
1.7723299e-24
-4.3989495e-24
4.3607866e-24
1.8184839e-24
-4.6309764e-24
4.5848224e-24
1.8720352e-24
-4.8669309e-24
4.8133796e-24
1.9337e-24
-5.1070927e-24
5.0454279e-24
2.0037437e-24
-5.3497206e-24
5.2796769e-24
2.0823643e-24
-5.5934006e-24
5.5147799e-24
2.1694065e-24
-5.8369096e-24
5.7498674e-24
2.2646425e-24
-6.0787553e-24
5.9835193e-24
2.3679493e-24
-6.3182154e-24
6.2149086e-24
2.4787561e-24
-6.5537416e-24
6.4429348e-24
2.5968056e-24
-6.7850453e-24
6.6669958e-24
2.7215869e-24
-7.0107521e-24
6.8859708e-24
2.8525852e-24
-7.2300784e-24
7.0990801e-24
2.9892624e-24
-7.442623e-24
7.3059458e-24
3.1310536e-24
-7.6474088e-24
7.5056176e-24
3.277379e-24
-7.8438417e-24
7.6975162e-24
3.4276563e-24
-8.0317606e-24
7.8814833e-24
3.5812906e-24
-8.210359e-24
8.0567248e-24
3.7376832e-24
-8.3792275e-24
8.2228349e-24
3.8962411e-24
-8.5383979e-24
8.3798401e-24
4.0563636e-24
-8.6871956e-24
8.5270731e-24
4.2174505e-24
-8.8253584e-24
8.6642715e-24
-8.9530746e-24
8.7916148e-24
4.3789103e-24
6.619611e-24
-9.4559688e-24
9.3758793e-24
-6.5395215e-24
6.6899979e-24
-9.3954613e-24
9.3250744e-24
6.750159e-24
-9.3266722e-24
9.2665112e-24
6.799576e-24
-9.2500854e-24
9.2006684e-24
6.8377389e-24
-9.1666426e-24
6.864143e-24
-9.0765026e-24
6.8782944e-24
-8.9803017e-24
6.8797131e-24
-8.8791352e-24
6.8679365e-24
-8.7733572e-24
6.8426556e-24
-8.6640672e-24
6.8036862e-24
-8.5525351e-24
6.7519221e-24
-8.4416645e-24
6.6908414e-24
-8.3373923e-24
6.6298947e-24
-8.251576e-24
6.5862493e-24
-8.1956893e-24
6.579432e-24
-8.1608676e-24
6.6062465e-24
-8.0748719e-24
6.5729606e-24
-7.7626506e-24
6.0812671e-24
-6.9002097e-24
-5.435349e-24
1.5600772e-24
1.2269184e-24
1.5613779e-24
-3.652006e-24
1.6035592e-24
-3.5865178e-24
1.626592e-24
-3.7773662e-24
1.6319482e-24
-3.9610078e-24
1.657616e-24
-4.1982375e-24
1.697654e-24
-4.4389875e-24
1.7460705e-24
-4.6793929e-24
1.8010846e-24
-4.921945e-24
1.8640468e-24
-5.1700549e-24
1.9359274e-24
-5.4216013e-24
2.0167524e-24
-5.6742255e-24
2.106012e-24
-5.9261692e-24
2.2035508e-24
-6.1762942e-24
2.3089764e-24
-6.423641e-24
2.4223309e-24
-6.6670961e-24
2.5429593e-24
-6.9056736e-24
2.6704535e-24
-7.1382463e-24
2.8042669e-24
-7.3638918e-24
2.9438313e-24
-7.5821874e-24
3.0885545e-24
-7.7921319e-24
3.2378326e-24
-7.9931198e-24
3.3910625e-24
-8.1849906e-24
3.5476312e-24
-8.3669278e-24
3.7069244e-24
-8.5385207e-24
3.8683348e-24
-8.6998083e-24
4.031249e-24
-8.8501098e-24
4.1950551e-24
-8.9891644e-24
-9.11717e-24
4.3591505e-24
5.8849283e-24
-9.7551552e-24
9.6207346e-24
-5.7505076e-24
6.0132322e-24
-9.7553973e-24
9.6270934e-24
6.13487e-24
-9.7449377e-24
9.6232999e-24
6.2492903e-24
-9.7235696e-24
9.6091493e-24
6.3559458e-24
-9.6915577e-24
9.5849023e-24
6.4542965e-24
-9.6496332e-24
9.5512825e-24
6.5438007e-24
-9.5976878e-24
9.5081836e-24
6.6239197e-24
-9.5360878e-24
6.694121e-24
-9.4656626e-24
6.7538713e-24
-9.3864225e-24
6.8026413e-24
-9.2988554e-24
6.8399084e-24
-9.2039096e-24
6.8651534e-24
-9.1017476e-24
6.877866e-24
-8.9930143e-24
6.8775473e-24
-8.8788165e-24
6.8637123e-24
-8.7595222e-24
6.8360238e-24
-8.6363786e-24
6.7944119e-24
-8.5109233e-24
6.740016e-24
-8.3872686e-24
6.6772785e-24
-8.2746548e-24
6.6172071e-24
-8.1915046e-24
6.5813938e-24
-8.159876e-24
6.6013298e-24
-8.1808036e-24
6.727902e-24
-8.2014441e-24
7.0782287e-24
-8.1129773e-24
1.0141504e-23
-9.9634849e-24
1.1929074e-24
1.5836451e-24
-3.9772556e-24
1.5821192e-24
-3.7758404e-24
1.5444702e-24
-3.9233589e-24
1.5720577e-24
-4.2258249e-24
1.6194802e-24
-4.48641e-24
1.671334e-24
-4.7312467e-24
1.7259908e-24
-4.9766018e-24
1.789434e-24
-5.2334981e-24
1.8637953e-24
-5.4959626e-24
1.9480566e-24
-5.7584868e-24
2.0406091e-24
-6.0187217e-24
2.1411213e-24
-6.2768063e-24
2.2494142e-24
-6.5319339e-24
2.3654149e-24
-6.7830969e-24
2.4888916e-24
-7.0291503e-24
2.6192969e-24
-7.2686517e-24
2.7561175e-24
-7.5007124e-24
2.8987525e-24
-7.7248224e-24
3.0465809e-24
-7.9399604e-24
3.1989752e-24
-8.1455141e-24
3.3553124e-24
-8.3413278e-24
3.5149628e-24
-8.5265782e-24
3.6772978e-24
-8.7008557e-24
3.8416978e-24
-8.8642083e-24
4.0075379e-24
-9.0159499e-24
4.1741954e-24
-9.155822e-24
-9.2840327e-24
4.3410581e-24
4.9983203e-24
-9.6742977e-24
9.5127195e-24
-4.836742e-24
5.1570757e-24
-9.7408786e-24
9.5821232e-24
5.3124247e-24
-9.7954095e-24
9.6400606e-24
5.4637824e-24
-9.8375077e-24
9.68615e-24
5.6105701e-24
-9.8672575e-24
9.7204698e-24
5.7522215e-24
-9.8852214e-24
9.7435699e-24
5.8881691e-24
-9.8911028e-24
6.0178504e-24
-9.8850787e-24
6.1407136e-24
-9.8678009e-24
6.2562045e-24
-9.8390606e-24
6.3637733e-24
-9.7991264e-24
6.4628774e-24
-9.7487373e-24
6.5529723e-24
-9.6877827e-24
6.6335163e-24
-9.6166319e-24
6.7039737e-24
-9.53612e-24
6.7638076e-24
-9.4462564e-24
6.812485e-24
-9.3475328e-24
6.8494792e-24
-9.2409039e-24
6.8742672e-24
-9.1265355e-24
6.8863346e-24
-9.0050818e-24
6.8851795e-24
-8.8776614e-24
6.8703158e-24
-8.7446585e-24
6.841409e-24
-8.6074718e-24
6.7981699e-24
-8.4676842e-24
6.7418582e-24
-8.3309569e-24
6.6758902e-24
-8.2086868e-24
6.60943e-24
-8.1250444e-24
6.5567547e-24
-8.1072008e-24
6.5307502e-24
-8.1547991e-24
6.5223555e-24
-8.1930494e-24
6.4673061e-24
-8.057928e-24
-7.3638834e-24
1.177212e-24
1.5448816e-24
-4.1435101e-24
1.4191103e-24
-3.7975876e-24
1.4808669e-24
-4.2875815e-24
1.547639e-24
-4.5531821e-24
1.6005326e-24
-4.7841402e-24
1.6450372e-24
-5.0211065e-24
1.7056544e-24
-5.2941152e-24
1.7837428e-24
-5.5740511e-24
1.8740175e-24
-5.8487615e-24
1.9724206e-24
-6.1171248e-24
2.0775026e-24
-6.3818882e-24
2.189381e-24
-6.6438123e-24
2.3086334e-24
-6.9023493e-24
2.4351138e-24
-7.1556307e-24
2.5686104e-24
-7.4021483e-24
2.7086861e-24
-7.6407881e-24
2.8545534e-24
-7.8706896e-24
3.0056371e-24
-8.0910442e-24
3.1612866e-24
-8.3011636e-24
3.3208606e-24
-8.5009018e-24
3.483715e-24
-8.6894326e-24
3.6492088e-24
-8.8663495e-24
3.8167117e-24
-9.0317113e-24
3.9855889e-24
-9.1848271e-24
4.1552083e-24
-9.3254413e-24
4.3249487e-24
-9.4537731e-24
4.4941852e-24
-9.5692442e-24
9.4000077e-24
4.6622977e-24
-9.6717294e-24
9.5036169e-24
4.8286789e-24
-9.7615863e-24
9.5952051e-24
4.9927202e-24
-9.838339e-24
5.1538195e-24
-9.9019779e-24
5.3113888e-24
-9.9529789e-24
5.46484e-24
-9.9909588e-24
5.6135918e-24
-1.0016009e-23
5.7570761e-24
-1.0028706e-23
5.8947245e-24
-1.0028751e-23
6.0259741e-24
-1.0016328e-23
6.150273e-24
-9.9920999e-24
6.2670679e-24
-9.9558555e-24
6.3758095e-24
-9.9078679e-24
6.4759564e-24
-9.8488842e-24
6.5669653e-24
-9.7787917e-24
6.6482962e-24
-9.6979627e-24
6.719415e-24
-9.6072388e-24
6.7797871e-24
-9.5066285e-24
6.8288821e-24
-9.3966279e-24
6.8661769e-24
-9.2781987e-24
6.8911528e-24
-9.1515115e-24
6.9033019e-24
-9.0172309e-24
6.9021307e-24
-8.8764901e-24
6.8871655e-24
-8.7296933e-24
6.8579618e-24
-8.5782681e-24
6.8145931e-24
-8.4243154e-24
6.7567456e-24
-8.2731094e-24
6.6864999e-24
-8.1384411e-24
6.6072861e-24
-8.0458306e-24
6.5237464e-24
-8.0236612e-24
6.4336166e-24
-8.0646693e-24
6.3173514e-24
-8.0767841e-24
6.1553755e-24
-7.8959521e-24
-7.2186701e-24
1.4109454e-24
7.7952765e-25
1.4241315e-24
-4.9321856e-24
1.5154191e-24
-4.6444697e-24
1.547654e-24
-4.8163751e-24
1.5511064e-24
-5.024559e-24
1.6057396e-24
-5.3487484e-24
1.6908527e-24
-5.6591641e-24
1.7916716e-24
-5.9495804e-24
1.8996483e-24
-6.2251015e-24
2.0118709e-24
-6.4941108e-24
2.1290048e-24
-6.7609462e-24
2.252256e-24
-7.0256005e-24
2.3823544e-24
-7.2857291e-24
2.519337e-24
-7.5391309e-24
2.6626757e-24
-7.7841268e-24
2.8119173e-24
-8.0199312e-24
2.9663844e-24
-8.2455112e-24
3.1254047e-24
-8.4601839e-24
3.2883222e-24
-8.6638192e-24
3.4544807e-24
-8.8555911e-24
3.6232296e-24
-9.0350985e-24
3.7939299e-24
-9.2024116e-24
3.9659379e-24
-9.3568351e-24
4.138613e-24
-9.4981164e-24
4.3113256e-24
-9.6264857e-24
4.4834429e-24
-9.7413615e-24
4.6543372e-24
-9.8426237e-24
4.823395e-24
-9.9306441e-24
4.9900021e-24
-1.0004946e-23
5.1535521e-24
-1.0065528e-23
5.3134541e-24
-1.0112881e-23
5.4691179e-24
-1.0146623e-23
5.6199615e-24
-1.0166853e-23
5.7654173e-24
-1.0174161e-23
5.9049178e-24
-1.0168252e-23
6.0379023e-24
-1.0149313e-23
6.1638217e-24
-1.0118019e-23
6.2821259e-24
-1.007416e-23
6.3922695e-24
-1.0018011e-23
6.4937155e-24
-9.9503303e-24
6.5859255e-24
-9.8710017e-24
6.6683647e-24
-9.7804019e-24
6.740505e-24
-9.6793792e-24
6.8018186e-24
-9.567942e-24
6.8517828e-24
-9.4465921e-24
6.8898836e-24
-9.3162995e-24
6.915613e-24
-9.1772409e-24
6.9284758e-24
-9.0300937e-24
6.9279937e-24
-8.876008e-24
6.9137111e-24
-8.7154108e-24
6.885205e-24
-8.549762e-24
6.8421141e-24
-8.3812245e-24
6.7844229e-24
-8.2154182e-24
6.7122641e-24
-8.0662823e-24
6.6264902e-24
-7.9600567e-24
6.5267817e-24
-7.9239527e-24
6.4084721e-24
-7.9463597e-24
6.2610377e-24
-7.9293498e-24
6.0845141e-24
-7.7194284e-24
-7.0563806e-24
9.4734595e-25
1.5330511e-24
-5.2301749e-24
1.5098805e-24
-4.7932045e-24
1.4286891e-24
-4.9433675e-24
1.4844516e-24
-5.4045109e-24
1.584331e-24
-5.7590435e-24
1.7004405e-24
-6.0656898e-24
1.8214747e-24
-6.3461358e-24
1.9435525e-24
-6.6161886e-24
2.0677828e-24
-6.8851765e-24
2.196304e-24
-7.1541217e-24
2.3307736e-24
-7.4201988e-24
2.4714344e-24
-7.6797916e-24
2.6185036e-24
-7.931196e-24
2.7713016e-24
-8.1727292e-24
2.9292361e-24
-8.4034458e-24
3.091699e-24
-8.6226469e-24
3.2580233e-24
-8.8301435e-24
3.4275447e-24
-9.0251126e-24
3.599606e-24
-9.2071597e-24
3.773561e-24
-9.3763665e-24
3.9487584e-24
-9.5320325e-24
4.1245492e-24
-9.6739073e-24
4.3002959e-24
-9.8022324e-24
4.4753572e-24
-9.9164228e-24
4.6490985e-24
-1.0016365e-23
4.8208998e-24
-1.0102445e-23
4.9901421e-24
-1.0174188e-23
5.1562156e-24
-1.0231601e-23
5.3185276e-24
-1.0275193e-23
5.4764872e-24
-1.0304582e-23
5.6295136e-24
-1.0319879e-23
5.7770411e-24
-1.0321689e-23
5.9185059e-24
-1.0309716e-23
6.0533513e-24
-1.0284158e-23
6.1810336e-24
-1.0245702e-23
6.3010085e-24
-1.0194135e-23
6.412737e-24
-1.012974e-23
6.5156895e-24
-1.0053283e-23
6.6093352e-24
-9.9646474e-24
6.6931477e-24
-9.8642143e-24
6.766608e-24
-9.7528395e-24
6.8291982e-24
-9.6305323e-24
6.8804069e-24
-9.4978008e-24
6.9197326e-24
-9.3556251e-24
6.9466814e-24
-9.2041898e-24
6.9607743e-24
-9.0441865e-24
6.9615509e-24
-8.8767846e-24
6.9485747e-24
-8.7024347e-24
6.9214412e-24
-8.5226284e-24
6.8798017e-24
-8.3395851e-24
6.8232981e-24
-8.1589146e-24
6.7512295e-24
-7.9942137e-24
6.6630658e-24
-7.871893e-24
6.5567233e-24
-7.8176101e-24
6.4299544e-24
-7.8195909e-24
6.2791257e-24
-7.778521e-24
6.1041456e-24
-7.5444483e-24
-6.879327e-24
9.2868408e-25
1.4766043e-24
-5.3411249e-24
1.2451758e-24
-4.711939e-24
1.3518521e-24
-5.5111872e-24
1.4781831e-24
-5.8853746e-24
1.6093288e-24
-6.1968356e-24
1.74102e-24
-6.477827e-24
1.872017e-24
-6.7471855e-24
2.0039828e-24
-7.0171423e-24
2.1395197e-24
-7.2896586e-24
2.2798433e-24
-7.5605224e-24
2.4256182e-24
-7.8255665e-24
2.5767295e-24
-8.0823073e-24
2.7332334e-24
-8.3292331e-24
2.8946737e-24
-8.5648861e-24
3.0606935e-24
-8.7886666e-24
3.2304453e-24
-8.9998953e-24
3.4033498e-24
-9.1980171e-24
3.5787456e-24
-9.3825556e-24
3.7559812e-24
-9.5536021e-24
3.9343976e-24
-9.7104489e-24
4.1133372e-24
-9.8528469e-24
4.2921533e-24
-9.9810484e-24
4.470196e-24
-1.0094466e-23
4.6468227e-24
-1.0192992e-23
4.8214073e-24
-1.027703e-23
4.9933262e-24
-1.0346107e-23
5.1619666e-24
-1.0400242e-23
5.3267351e-24
-1.0439961e-23
5.4870417e-24
-1.0464889e-23
5.642308e-24
-1.0475145e-23
5.7919725e-24
-1.0471354e-23
5.9354765e-24
-1.045322e-23
6.0722699e-24
-1.0420952e-23
6.2018162e-24
-1.0375248e-23
6.3235793e-24
-1.0315898e-23
6.4370291e-24
-1.024319e-23
6.5416453e-24
-1.0157899e-23
6.6369069e-24
-1.0059909e-23
6.7222979e-24
-9.9496053e-24
6.7973107e-24
-9.8278522e-24
6.8614388e-24
-9.6946605e-24
6.9141837e-24
-9.5505457e-24
6.9550576e-24
-9.3964989e-24
6.9835818e-24
-9.2327141e-24
6.9992938e-24
-9.0598985e-24
7.0017505e-24
-8.8792413e-24
6.9905325e-24
-8.6912167e-24
6.9652493e-24
-8.4973452e-24
6.9254135e-24
-8.2997492e-24
6.870497e-24
-8.1039982e-24
6.7997135e-24
-7.9234302e-24
6.7103064e-24
-7.7824859e-24
6.600939e-24
-7.7082427e-24
6.4717753e-24
-7.6904272e-24
6.3300095e-24
-7.6367552e-24
6.1679052e-24
-7.382344e-24
-6.6591797e-24
1.3079418e-24
3.4881506e-25
1.2738029e-24
-6.4361753e-24
1.4109164e-24
-6.0224881e-24
1.5386398e-24
-6.324559e-24
1.6665377e-24
-6.6057249e-24
1.796994e-24
-6.8776417e-24
1.9335926e-24
-7.153741e-24
2.0777324e-24
-7.4337983e-24
2.2272473e-24
-7.7100373e-24
2.3806815e-24
-7.9790007e-24
2.5375025e-24
-8.2391283e-24
2.6983313e-24
-8.4900619e-24
2.8636626e-24
-8.7302174e-24
3.0330476e-24
-8.9580516e-24
3.2062079e-24
-9.1730556e-24
3.3824817e-24
-9.3742909e-24
3.5612062e-24
-9.5612801e-24
3.7417245e-24
-9.7341204e-24
3.923369e-24
-9.8920934e-24
4.1054716e-24
-1.0034949e-23
4.2873745e-24
-1.0162951e-23
4.4684175e-24
-1.0275509e-23
4.6479491e-24
-1.0372523e-23
4.8253365e-24
-1.0454417e-23
4.9999512e-24
-1.0520722e-23
5.1711784e-24
-1.0571469e-23
5.3384244e-24
-1.0607207e-23
5.5011017e-24
-1.0627566e-23
5.6586356e-24
-1.0632679e-23
5.8104706e-24
-1.0623189e-23
5.956055e-24
-1.0598805e-23
6.0948471e-24
-1.0559744e-23
6.2263197e-24
-1.0506721e-23
6.3499467e-24
-1.0439525e-23
6.4652084e-24
-1.0358451e-23
6.5715957e-24
-1.0264286e-23
6.668599e-24
-1.0156912e-23
6.7557136e-24
-1.003672e-23
6.8324437e-24
-9.9045824e-24
6.8982952e-24
-9.760512e-24
6.9527816e-24
-9.6050321e-24
6.9954283e-24
-9.4391456e-24
7.0257701e-24
-9.2630558e-24
7.0433581e-24
-9.0774865e-24
7.0477635e-24
-8.8836467e-24
7.0385794e-24
-8.6820326e-24
7.0154235e-24
-8.4741893e-24
6.9777028e-24
-8.2620286e-24
6.9244588e-24
-8.0507541e-24
6.8534338e-24
-7.8524052e-24
6.760796e-24
-7.6898481e-24
6.6414549e-24
-7.5889016e-24
6.5002686e-24
-7.5492408e-24
6.3668288e-24
-7.5033154e-24
6.2946309e-24
-7.3101461e-24
-6.6190277e-24
6.0326113e-25
1.4409045e-24
-6.8601315e-24
1.5188617e-24
-6.4025163e-24
1.6158697e-24
-6.7027329e-24
1.7247266e-24
-6.9864986e-24
1.8543027e-24
-7.283317e-24
2.0058391e-24
-7.5853348e-24
2.1690532e-24
-7.8732514e-24
2.334524e-24
-8.1444714e-24
2.5000709e-24
-8.4046753e-24
2.6665448e-24
-8.6565358e-24
2.8359373e-24
-8.8996099e-24
3.0089994e-24
-9.1311137e-24
3.1856257e-24
-9.349682e-24
3.365203e-24
-9.5538681e-24
3.5472065e-24
-9.7432836e-24
3.7309717e-24
-9.9178856e-24
3.9158187e-24
-1.007694e-23
4.1010652e-24
-1.0220196e-23
4.2860393e-24
-1.0347925e-23
4.4700679e-24
-1.0459537e-23
4.6524888e-24
-1.0554944e-23
4.8326614e-24
-1.063459e-23
5.0099525e-24
-1.0698013e-23
5.1837454e-24
-1.0745262e-23
5.3534476e-24
-1.077691e-23
5.5184748e-24
-1.0792593e-23
5.678258e-24
-1.0792463e-23
5.8322493e-24
-1.077718e-23
5.9799058e-24
-1.0746461e-23
6.1206958e-24
-1.0700534e-23
6.2541034e-24
-1.0640128e-23
6.3796139e-24
-1.0565035e-23
6.4967198e-24
-1.0475557e-23
6.604924e-24
-1.0372491e-23
6.7037289e-24
-1.0255717e-23
6.7926418e-24
-1.0125633e-23
6.8711783e-24
-9.9831189e-24
6.9388553e-24
-9.8281889e-24
6.9951968e-24
-9.6613736e-24
7.0397381e-24
-9.483687e-24
7.0720237e-24
-9.2953414e-24
7.0916136e-24
-9.0970764e-24
7.0980872e-24
-8.8901203e-24
7.0910442e-24
-8.6749896e-24
7.0698738e-24
-8.4530188e-24
7.034186e-24
-8.2263408e-24
6.9824348e-24
-7.9990029e-24
6.9107233e-24
-7.7806938e-24
6.8106173e-24
-7.5897421e-24
6.6695281e-24
-7.4478124e-24
6.476633e-24
-7.3563458e-24
6.2370041e-24
-7.2636865e-24
5.9780758e-24
-7.0512178e-24
-6.4125756e-24
6.0593969e-25
1.5281769e-24
-7.3247536e-24
1.5865125e-24
-6.7610684e-24
1.6502976e-24
-7.0502838e-24
1.7560407e-24
-7.3890601e-24
1.9140527e-24
-7.7433468e-24
2.0977663e-24
-8.056965e-24
2.2835159e-24
-8.3302209e-24
2.4628525e-24
-8.5840119e-24
2.6379224e-24
-8.8316057e-24
2.8124977e-24
-9.0741852e-24
2.9892958e-24
-9.3079118e-24
3.169029e-24
-9.5294151e-24
3.3519004e-24
-9.7367396e-24
3.5371019e-24
-9.9284851e-24
3.7240527e-24
-1.0104836e-23
3.9120543e-24
-1.0264942e-23
4.1004039e-24
-1.0408545e-23
4.2884108e-24
-1.0535932e-23
4.4753854e-24
-1.0646512e-23
4.6606525e-24
-1.0740211e-23
4.843563e-24
-1.0817501e-23
5.0234787e-24
-1.0877929e-23
5.1997815e-24
-1.0921565e-23
5.3718811e-24
-1.0949009e-23
5.5391981e-24
-1.095991e-23
5.7011707e-24
-1.0954435e-23
5.8572604e-24
-1.093327e-23
6.0069349e-24
-1.0896136e-23
6.1496745e-24
-1.0843273e-23
6.2849758e-24
-1.0775429e-23
6.4123371e-24
-1.0692397e-23
6.531264e-24
-1.0594484e-23
6.6412723e-24
-1.0482499e-23
6.7418767e-24
-1.0356322e-23
6.8325957e-24
-1.0216352e-23
6.9129555e-24
-1.0063479e-23
6.9824815e-24
-9.8977149e-24
7.040705e-24
-9.7195971e-24
7.0871667e-24
-9.5301486e-24
7.1214141e-24
-9.3295889e-24
7.1430087e-24
-9.118671e-24
7.1515292e-24
-8.8986408e-24
7.1465725e-24
-8.6700329e-24
7.1277364e-24
-8.4341828e-24
7.0941849e-24
-8.1927892e-24
7.0442452e-24
-7.9490633e-24
6.9731527e-24
-7.7096013e-24
6.8701812e-24
-7.4867706e-24
6.7162799e-24
-7.2939111e-24
6.4850594e-24
-7.1251253e-24
6.1463208e-24
-6.9249479e-24
5.6631074e-24
-6.5680043e-24
5.0788263e-24
-5.8282946e-24
-4.6817987e-24
6.1160814e-25
1.5803747e-24
-7.7298352e-24
1.5695562e-24
-7.0394652e-24
1.6319719e-24
-7.4514758e-24
1.7991974e-24
-7.9105723e-24
2.0122946e-24
-8.2700621e-24
2.2256925e-24
-8.5436189e-24
2.4246698e-24
-8.7829892e-24
2.6113695e-24
-9.0183054e-24
2.7926447e-24
-9.2554604e-24
2.9738441e-24
-9.4891113e-24
3.1570775e-24
-9.7126484e-24
3.3429168e-24
-9.9225789e-24
3.5313729e-24
-1.0116941e-23
3.7214403e-24
-1.0294904e-23
3.9125419e-24
-1.0456044e-23
4.1039458e-24
-1.0599949e-23
4.2949361e-24
-1.0726923e-23
4.4848025e-24
-1.0836378e-23
4.6728547e-24
-1.0928263e-23
4.8584337e-24
-1.100308e-23
5.0408966e-24
-1.1060392e-23
5.2196249e-24
-1.1100293e-23
5.3940319e-24
-1.1123416e-23
5.5635446e-24
-1.1129423e-23
5.7276106e-24
-1.1118501e-23
5.8857024e-24
-1.1091361e-23
6.0373003e-24
-1.1047734e-23
6.1818982e-24
-1.0987871e-23
6.3190067e-24
-1.0912538e-23
6.4481385e-24
-1.0821528e-23
6.5688128e-24
-1.0715159e-23
6.680559e-24
-1.0594245e-23
6.7829036e-24
-1.0458666e-23
6.8753759e-24
-1.0308824e-23
6.9575104e-24
-1.0145613e-23
7.0288383e-24
-9.9690429e-24
7.0888937e-24
-9.7796525e-24
7.1372165e-24
-9.5784714e-24
7.1733495e-24
-9.3657219e-24
7.1968453e-24
-9.1421668e-24
7.2072701e-24
-8.9090656e-24
7.2042048e-24
-8.6669676e-24
7.1871235e-24
-8.4171014e-24
7.1554048e-24
-8.1610705e-24
7.1074839e-24
-7.9011424e-24
7.0395957e-24
-7.6417131e-24
6.9430178e-24
-7.3901926e-24
6.8036619e-24
-7.1545553e-24
6.6080731e-24
-6.9295365e-24
6.3626965e-24
-6.6795712e-24
6.1393404e-24
-6.3446483e-24
6.2433713e-24
-5.9323254e-24
-5.5231921e-24
5.4828928e-25
1.4770417e-24
-7.9682179e-24
1.4815886e-24
-7.4560226e-24
1.6800544e-24
-8.1090382e-24
1.9301377e-24
-8.5201455e-24
2.1700557e-24
-8.7835368e-24
2.3876383e-24
-9.0005718e-24
2.5871685e-24
-9.2178356e-24
2.7765947e-24
-9.4448866e-24
2.9627229e-24
-9.6752394e-24
3.1497726e-24
-9.8996981e-24
3.3388357e-24
-1.0111642e-23
3.5301416e-24
-1.0308247e-23
3.7232465e-24
-1.0488009e-23
3.91738e-24
-1.0650177e-23
4.1117711e-24
-1.0794341e-23
4.3056714e-24
-1.0920823e-23
4.4983458e-24
-1.1029053e-23
4.6890869e-24
-1.1119005e-23
4.8772258e-24
-1.1191219e-23
5.0621155e-24
-1.1245281e-23
5.2431386e-24
-1.1281316e-23
5.419714e-24
-1.1299992e-23
5.5912775e-24
-1.1300987e-23
5.757288e-24
-1.1284512e-23
5.9172313e-24
-1.1251305e-23
6.0706024e-24
-1.1201105e-23
6.2169103e-24
-1.1134179e-23
6.3556814e-24
-1.1051309e-23
6.4864437e-24
-1.0952291e-23
6.6087311e-24
-1.0837446e-23
6.7220865e-24
-1.07076e-23
6.8260484e-24
-1.0562628e-23
6.9201553e-24
-1.0402931e-23
7.0039481e-24
-1.0229406e-23
7.0769609e-24
-1.0042056e-23
7.1387254e-24
-9.841417e-24
7.1887739e-24
-9.62852e-24
7.2266356e-24
-9.4035836e-24
7.2518424e-24
-9.1673736e-24
7.2639332e-24
-8.9211564e-24
7.2624556e-24
-8.66549e-24
7.2469714e-24
-8.4016172e-24
7.216693e-24
-8.1307922e-24
7.1708645e-24
-7.8553138e-24
7.1066325e-24
-7.5774811e-24
7.0190696e-24
-7.3026297e-24
6.9004248e-24
-7.0359104e-24
6.748977e-24
-6.7780887e-24
6.5874127e-24
-6.5180069e-24
6.4854693e-24
-6.2427049e-24
6.5363256e-24
-5.9831817e-24
-5.6193477e-24
1.9314224e-25
1.3233146e-24
-8.5861951e-24
1.6163132e-24
-8.4020368e-24
1.8988167e-24
-8.802649e-24
2.1381161e-24
-9.0228363e-24
2.3583859e-24
-9.2208416e-24
2.5661848e-24
-9.4256345e-24
2.763855e-24
-9.6425568e-24
2.9559644e-24
-9.8673488e-24
3.1467927e-24
-1.0090526e-23
3.3392211e-24
-1.030407e-23
3.5337058e-24
-1.0502732e-23
3.7297305e-24
-1.0684033e-23
3.9268342e-24
-1.0847281e-23
4.1241418e-24
-1.0991648e-23
4.320866e-24
-1.1117547e-23
4.516244e-24
-1.1224431e-23
4.7095506e-24
-1.1312311e-23
4.9001077e-24
-1.1381776e-23
5.0872662e-24
-1.143244e-23
5.2704125e-24
-1.1464463e-23
5.4489737e-24
-1.1478553e-23
5.6223971e-24
-1.147441e-23
5.7901557e-24
-1.145227e-23
5.9517511e-24
-1.14129e-23
6.106695e-24
-1.1356049e-23
6.2545135e-24
-1.1281998e-23
6.3947501e-24
-1.1191546e-23
6.5269494e-24
-1.108449e-23
6.6506608e-24
-1.0961157e-23
6.765441e-24
-1.0822381e-23
6.8708402e-24
-1.0668027e-23
6.9664055e-24
-1.0498496e-23
7.0516823e-24
-1.0314683e-23
7.1262042e-24
-1.0116578e-23
7.1894963e-24
-9.904709e-24
7.2410766e-24
-9.6801003e-24
7.2804514e-24
-9.4429583e-24
7.3071197e-24
-9.194042e-24
7.3205773e-24
-8.934614e-24
7.3203183e-24
-8.6652309e-24
7.3057177e-24
-8.3870166e-24
7.2766455e-24
-8.1017201e-24
7.2316891e-24
-7.8103574e-24
7.1697616e-24
-7.5155536e-24
7.0875999e-24
-7.220468e-24
6.9812376e-24
-6.9295481e-24
6.8483245e-24
-6.6451756e-24
6.6945039e-24
-6.3641863e-24
6.5282535e-24
-6.0764546e-24
6.317324e-24
-5.7722521e-24
6.0986337e-24
-5.4006575e-24
-4.7930031e-24
4.5311085e-26
1.7350427e-24
-1.0091769e-23
1.9829546e-24
-9.0505608e-24
2.1499246e-24
-9.1898063e-24
2.340384e-24
-9.411301e-24
2.5474345e-24
-9.6326849e-24
2.7530971e-24
-9.8482195e-24
2.952471e-24
-1.0066723e-23
3.1485773e-24
-1.0286633e-23
3.344677e-24
-1.050017e-23
3.5421191e-24
-1.0700174e-23
3.7413117e-24
-1.0883226e-23
3.9413499e-24
-1.1047319e-23
4.1415141e-24
-1.1191812e-23
4.3409741e-24
-1.1317007e-23
4.5389386e-24
-1.1422395e-23
4.7346661e-24
-1.1508039e-23
4.9274724e-24
-1.1574582e-23
5.1167098e-24
-1.1621677e-23
5.3017721e-24
-1.1649525e-23
5.4820983e-24
-1.1658879e-23
5.6571507e-24
-1.1649463e-23
5.8264195e-24
-1.1621539e-23
5.9894246e-24
-1.1575905e-23
6.1456968e-24
-1.1512321e-23
6.2947814e-24
-1.1431082e-23
6.4362406e-24
-1.1333005e-23
6.5696366e-24
-1.1217886e-23
6.6945353e-24
-1.1086056e-23
6.8105078e-24
-1.0938353e-23
6.9171158e-24
-1.0774635e-23
7.0139146e-24
-1.0595295e-23
7.100453e-24
-1.0401221e-23
7.1762618e-24
-1.0192386e-23
7.2408559e-24
-9.9693031e-24
7.2937339e-24
-9.7329783e-24
7.3343709e-24
-9.4835953e-24
7.362222e-24
-9.2218932e-24
7.3767245e-24
-8.9491165e-24
7.3772977e-24
-8.6658041e-24
7.3633509e-24
-8.3730697e-24
7.3342871e-24
-8.0726563e-24
7.2891646e-24
-7.7652349e-24
7.227189e-24
-7.453578e-24
7.1462286e-24
-7.1395076e-24
7.0432679e-24
-6.8265874e-24
6.9151115e-24
-6.5170192e-24
6.7599987e-24
-6.2090736e-24
6.5765556e-24
-5.8930114e-24
6.3567858e-24
-5.5524823e-24
6.1224919e-24
-5.1663637e-24
-4.5738694e-24
2.9066868e-24
-7.9744198e-24
2.2756092e-24
-8.4194833e-24
2.1660695e-24
-9.0802667e-24
2.3036642e-24
-9.5488956e-24
2.5187743e-24
-9.8477951e-24
2.7404114e-24
-1.0069857e-23
2.9514111e-24
-1.0277722e-23
3.1544178e-24
-1.0489639e-23
3.3547562e-24
-1.0700509e-23
3.555809e-24
-1.0901227e-23
3.7579242e-24
-1.1085341e-23
3.9610427e-24
-1.1250438e-23
4.1639966e-24
-1.1394766e-23
4.3660814e-24
-1.1519092e-23
4.5664808e-24
-1.1622795e-23
4.7644417e-24
-1.1706e-23
4.9592791e-24
-1.1769419e-23
5.1503521e-24
-1.181275e-23
5.3370672e-24
-1.183624e-23
5.51888e-24
-1.1840692e-23
5.6952722e-24
-1.1825855e-23
5.8657545e-24
-1.1792021e-23
6.0298684e-24
-1.1740019e-23
6.1871661e-24
-1.1669619e-23
6.3372141e-24
-1.158113e-23
6.4795949e-24
-1.1475386e-23
6.6138898e-24
-1.1352181e-23
6.7396821e-24
-1.1211848e-23
6.856558e-24
-1.1055229e-23
6.9640914e-24
-1.0882169e-23
7.061846e-24
-1.069305e-23
7.1493737e-24
-1.0488749e-23
7.2262021e-24
-1.0269215e-23
7.2918337e-24
-1.0034935e-23
7.3457447e-24
-9.7868892e-24
7.387374e-24
-9.5252247e-24
7.4161254e-24
-9.2506446e-24
7.4313661e-24
-8.9643572e-24
7.4324253e-24
-8.6668633e-24
7.4185999e-24
-8.3592444e-24
7.3890395e-24
-8.0430958e-24
7.3432299e-24
-7.7194254e-24
7.2798489e-24
-7.390197e-24
7.1974276e-24
-7.0570863e-24
7.0937005e-24
-6.7228603e-24
6.9655744e-24
-6.3888931e-24
6.8104405e-24
-6.0539397e-24
6.6290742e-24
-5.7116451e-24
6.428492e-24
-5.3519001e-24
6.232155e-24
-4.9700267e-24
6.2431642e-24
-4.5848786e-24
-3.9390445e-24
1.0846816e-24
1.8323632e-24
-9.167165e-24
1.9557254e-24
-9.2036289e-24
2.2391341e-24
-9.8323043e-24
2.5046019e-24
-1.0113263e-23
2.741592e-24
-1.0306847e-23
2.9589208e-24
-1.0495051e-23
3.1662487e-24
-1.0696967e-23
3.3705734e-24
-1.0904833e-23
3.5749391e-24
-1.1105592e-23
3.7804444e-24
-1.1290847e-23
3.9862503e-24
-1.1456244e-23
4.1919222e-24
-1.1600438e-23
4.396499e-24
-1.1723669e-23
4.5991476e-24
-1.1825443e-23
4.7991119e-24
-1.1905964e-23
4.9957144e-24
-1.1966022e-23
5.1883288e-24
-1.2005364e-23
5.3763809e-24
-1.2024292e-23
5.5593489e-24
-1.202366e-23
5.7367384e-24
-1.2003244e-23
5.9080847e-24
-1.1963368e-23
6.0729541e-24
-1.1904888e-23
6.2309227e-24
-1.1827587e-23
6.3815802e-24
-1.1731788e-23
6.524531e-24
-1.1618337e-23
6.6593768e-24
-1.1487027e-23
6.7857192e-24
-1.1338191e-23
6.9031609e-24
-1.1172671e-23
7.0112891e-24
-1.0990297e-23
7.1096766e-24
-1.0791437e-23
7.19788e-24
-1.0576952e-23
7.2754242e-24
-1.0346759e-23
7.3418005e-24
-1.0101311e-23
7.3964622e-24
-9.8415509e-24
7.4388114e-24
-9.5675739e-24
7.4681973e-24
-9.2800304e-24
7.4839124e-24
-8.9800723e-24
7.485188e-24
-8.6681389e-24
7.4711983e-24
-8.3452546e-24
7.4410649e-24
-8.0129625e-24
7.3938672e-24
-7.6722277e-24
7.3284528e-24
-7.3247826e-24
7.2437265e-24
-6.97236e-24
7.1376479e-24
-6.6167816e-24
7.0082233e-24
-6.2594685e-24
6.8542703e-24
-5.8999867e-24
6.6770033e-24
-5.5343782e-24
6.4823911e-24
-5.1572879e-24
6.2804313e-24
-4.7680668e-24
6.0772686e-24
-4.3817158e-24
6.1438681e-24
-4.0056439e-24
-3.2654858e-24
-2.8692838e-25
1.8553758e-24
-1.1345933e-23
2.282978e-24
-1.0259907e-23
2.542903e-24
-1.0373188e-23
2.7641383e-24
-1.0528082e-23
2.9761937e-24
-1.0707107e-23
3.1846013e-24
-1.0905375e-23
3.3921785e-24
-1.111241e-23
3.6001219e-24
-1.1313536e-23
3.8086173e-24
-1.1499342e-23
4.0173923e-24
-1.1665019e-23
4.2258738e-24
-1.180892e-23
4.4327816e-24
-1.1930576e-23
4.6374552e-24
-1.2030117e-23
4.8391484e-24
-1.2107657e-23
5.0372021e-24
-1.2164076e-23
5.2310143e-24
-1.2199177e-23
5.4200383e-24
-1.2213316e-23
5.6037813e-24
-1.2207403e-23
5.7817779e-24
-1.2181241e-23
5.9535923e-24
-1.2135182e-23
6.1188185e-24
-1.2070115e-23
6.2770591e-24
-1.1985828e-23
6.4279286e-24
-1.1882657e-23
6.5710549e-24
-1.1761463e-23
6.7060611e-24
-1.1622033e-23
6.8325685e-24
-1.1464698e-23
6.9501973e-24
-1.1290299e-23
7.0585494e-24
-1.1098649e-23
7.1572091e-24
-1.0890097e-23
7.2457398e-24
-1.0665483e-23
7.3236668e-24
-1.0424686e-23
7.3904736e-24
-1.0168118e-23
7.4455938e-24
-9.8966712e-24
7.4883961e-24
-9.6103761e-24
7.518178e-24
-9.3098124e-24
7.5341596e-24
-8.9960539e-24
7.5354752e-24
-8.6694545e-24
7.5211757e-24
-8.3309551e-24
7.4902341e-24
-7.9820209e-24
7.441567e-24
-7.6235606e-24
7.3739655e-24
-7.2571811e-24
7.2861961e-24
-6.8845906e-24
7.1771189e-24
-6.5077044e-24
7.0454999e-24
-6.1278495e-24