/*--------------------------------*- C++ -*----------------------------------*\
| =========                 |                                                 |
| \\      /  F ield         | OpenFOAM: The Open Source CFD Toolbox           |
|  \\    /   O peration     | Version:  2412                                  |
|   \\  /    A nd           | Website:  www.openfoam.com                      |
|    \\/     M anipulation  |                                                 |
\*---------------------------------------------------------------------------*/
FoamFile
{
    version     2.0;
    format      ascii;
    arch        "LSB;label=32;scalar=64";
    class       volVectorField;
    location    "15174";
    object      U;
}
// * * * * * * * * * * * * * * * * * * * * * * * * * * * * * * * * * * * * * //

dimensions      [0 1 -1 0 0 0 0];

internalField   nonuniform List<vector> 
57534
(
(1.2757313e-06 8.953809e-09 2.1161705e-25)
(1.2770383e-06 -2.78042e-09 3.578317e-26)
(1.2710763e-06 -1.8924351e-08 3.9858943e-26)
(1.0477228e-06 -1.3033672e-06 0)
(1.0445724e-06 -1.2951179e-06 -1.5441367e-30)
(1.0397728e-06 -1.286843e-06 -5.1730849e-30)
(1.0333566e-06 -1.2786311e-06 -4.1229506e-30)
(1.0253782e-06 -1.2705516e-06 -7.1596438e-29)
(1.0159167e-06 -1.2626403e-06 -2.2673592e-28)
(1.0050702e-06 -1.2548776e-06 1.0811388e-27)
(9.9288736e-07 -1.2472389e-06 9.8949689e-28)
(9.7961086e-07 -1.2398519e-06 5.5294223e-27)
(9.666404e-07 -1.2319221e-06 -1.7358392e-26)
(9.5115859e-07 -1.2204782e-06 -1.0897193e-25)
(1.0424639e-06 -1.3199027e-06 0)
(1.0416781e-06 -1.3102922e-06 0)
(1.0391106e-06 -1.3004394e-06 0)
(1.0347423e-06 -1.2904601e-06 -3.8441129e-30)
(1.0285709e-06 -1.2804718e-06 4.6369004e-30)
(1.0206147e-06 -1.2705881e-06 -2.6827952e-29)
(1.0109165e-06 -1.2609096e-06 1.1845712e-28)
(9.9955586e-07 -1.2515068e-06 4.3287568e-29)
(9.86616e-07 -1.24239e-06 -2.9438694e-28)
(9.7204897e-07 -1.2335416e-06 9.2202613e-29)
(9.5697296e-07 -1.2250297e-06 5.0748145e-28)
(9.3537064e-07 -1.2118546e-06 -2.4889171e-26)
(9.2362226e-07 -1.2018926e-06 -1.6006978e-26)
(1.0350006e-06 -1.3411425e-06 0)
(1.0370524e-06 -1.3306134e-06 0)
(1.0373024e-06 -1.3195749e-06 0)
(1.0356989e-06 -1.3081405e-06 7.6787378e-31)
(1.0321981e-06 -1.2964321e-06 -2.6025316e-30)
(1.0267671e-06 -1.2845796e-06 -1.1657697e-29)
(1.019388e-06 -1.2727201e-06 8.4783541e-30)
(1.0100624e-06 -1.2609938e-06 8.5263466e-29)
(9.9881946e-07 -1.2495386e-06 -2.4509756e-28)
(9.8574782e-07 -1.2384752e-06 -5.3558036e-28)
(9.7098047e-07 -1.2278754e-06 7.6505486e-28)
(9.5459771e-07 -1.2177085e-06 -2.3336127e-28)
(9.3833923e-07 -1.2074926e-06 6.8496277e-28)
(9.1854646e-07 -1.1916231e-06 4.9049335e-26)
(1.0239433e-06 -1.3663573e-06 0)
(1.0290612e-06 -1.3554707e-06 0)
(1.0324314e-06 -1.3438054e-06 0)
(1.0339852e-06 -1.3314619e-06 0)
(1.0336575e-06 -1.3185497e-06 0)
(1.0313873e-06 -1.3051883e-06 0)
(1.0271196e-06 -1.2915081e-06 -7.680199e-30)
(1.0208074e-06 -1.2776507e-06 -4.0251241e-30)
(1.0124139e-06 -1.2637696e-06 -6.0787833e-29)
(1.0019137e-06 -1.2500297e-06 1.0716702e-28)
(9.8929977e-07 -1.2366103e-06 -6.7895805e-29)
(9.7462206e-07 -1.2237115e-06 1.969034e-27)
(9.5798567e-07 -1.2115886e-06 -2.0832165e-27)
(9.3964679e-07 -1.2006208e-06 -8.1879646e-28)
(9.2161038e-07 -1.1903667e-06 1.6523328e-26)
(9.0247638e-07 -1.1764215e-06 5.1922492e-27)
(2.4803451e-07 -4.1004078e-07 2.2180148e-25)
(2.4688864e-07 -4.3651959e-07 8.1492653e-27)
(2.476968e-07 -4.6673011e-07 -9.7105236e-27)
(2.471438e-07 -4.9441291e-07 -1.5047081e-26)
(2.4869528e-07 -5.2516699e-07 7.9300356e-27)
(2.5117549e-07 -5.5745374e-07 -2.9347029e-27)
(2.5461681e-07 -5.8993302e-07 3.4437206e-27)
(2.5869869e-07 -6.2279479e-07 -1.4252827e-27)
(2.6362579e-07 -6.5634099e-07 -1.0724045e-27)
(2.6959786e-07 -6.9070597e-07 3.530598e-28)
(2.7679094e-07 -7.2575331e-07 -3.9208241e-28)
(2.8527692e-07 -7.6128223e-07 -5.8471925e-29)
(2.9507636e-07 -7.9710324e-07 5.241465e-29)
(3.0618653e-07 -8.3303988e-07 3.9406235e-29)
(3.1859136e-07 -8.6892381e-07 1.6661494e-30)
(3.3226134e-07 -9.0459324e-07 1.3998651e-29)
(3.4715617e-07 -9.3989339e-07 -3.849279e-30)
(3.632254e-07 -9.746768e-07 -4.8775134e-31)
(3.804094e-07 -1.0088055e-06 0)
(3.9864045e-07 -1.0421514e-06 0)
(4.1784395e-07 -1.0745961e-06 0)
(4.3794057e-07 -1.1060328e-06 0)
(4.5884732e-07 -1.1363651e-06 0)
(4.8047814e-07 -1.1655064e-06 0)
(5.027457e-07 -1.19338e-06 0)
(5.2556159e-07 -1.2199184e-06 0)
(5.4883623e-07 -1.2450615e-06 0)
(5.7248018e-07 -1.2687576e-06 0)
(5.9640387e-07 -1.290962e-06 0)
(6.205172e-07 -1.3116363e-06 0)
(6.4473077e-07 -1.3307491e-06 0)
(9.8729863e-07 -1.4124095e-06 0)
(9.9860412e-07 -1.4040489e-06 0)
(1.0084148e-06 -1.394507e-06 0)
(1.0166525e-06 -1.3838556e-06 0)
(1.0232401e-06 -1.3721731e-06 0)
(1.0281013e-06 -1.3595455e-06 0)
(1.0311612e-06 -1.3460668e-06 0)
(1.0323466e-06 -1.33184e-06 0)
(1.0315866e-06 -1.3169775e-06 0)
(1.0288133e-06 -1.3016032e-06 2.1416572e-30)
(1.0239629e-06 -1.285853e-06 -9.9182881e-30)
(1.0169759e-06 -1.2698754e-06 -4.1058173e-30)
(1.007796e-06 -1.2538313e-06 -2.0779051e-28)
(9.9636179e-07 -1.2378928e-06 5.6890562e-28)
(9.8260657e-07 -1.2222517e-06 -2.1883017e-28)
(9.6647267e-07 -1.2071502e-06 2.1686881e-27)
(9.4784696e-07 -1.1930456e-06 3.2774835e-27)
(9.2730246e-07 -1.1810389e-06 -3.9124102e-27)
(9.065592e-07 -1.1709579e-06 -2.5812491e-28)
(8.8615626e-07 -1.1591722e-06 4.0733076e-26)
(2.3970846e-07 -4.4078552e-07 -2.9206944e-25)
(2.3528911e-07 -4.6698687e-07 -4.1207751e-26)
(2.347053e-07 -4.9178729e-07 -1.9305223e-26)
(2.3810469e-07 -5.2606601e-07 -1.7731891e-26)
(2.4082335e-07 -5.5986957e-07 9.8177505e-27)
(2.4433835e-07 -5.9338418e-07 -1.2270992e-27)
(2.4839328e-07 -6.2708897e-07 9.460764e-28)
(2.532678e-07 -6.6159574e-07 -2.4622752e-28)
(2.5919814e-07 -6.9718086e-07 4.86805e-28)
(2.6643694e-07 -7.335694e-07 6.7902073e-28)
(2.7504082e-07 -7.7045942e-07 -1.6175818e-28)
(2.8500911e-07 -8.076308e-07 1.2991504e-28)
(2.9632977e-07 -8.4489811e-07 8.0796649e-29)
(3.0898346e-07 -8.8208414e-07 1.8528752e-29)
(3.2293793e-07 -9.190176e-07 -4.9140345e-30)
(3.3815058e-07 -9.555339e-07 8.9636356e-30)
(3.5456834e-07 -9.9147654e-07 -6.1067113e-30)
(3.7212776e-07 -1.0266984e-06 0)
(3.9075661e-07 -1.0610642e-06 0)
(4.103756e-07 -1.0944496e-06 0)
(4.3090067e-07 -1.1267435e-06 0)
(4.5224451e-07 -1.1578466e-06 0)
(4.7431718e-07 -1.1876702e-06 0)
(4.9702802e-07 -1.2161367e-06 0)
(5.2028573e-07 -1.2431775e-06 0)
(5.439982e-07 -1.2687324e-06 0)
(5.6807377e-07 -1.2927495e-06 0)
(5.9242088e-07 -1.3151841e-06 0)
(6.1694759e-07 -1.3359981e-06 0)
(6.415628e-07 -1.3551603e-06 0)
(8.7287213e-07 -1.4531309e-06 0)
(8.9259718e-07 -1.4536537e-06 0)
(9.1136337e-07 -1.452569e-06 0)
(9.2908817e-07 -1.4499113e-06 0)
(9.4568916e-07 -1.44572e-06 0)
(9.6108484e-07 -1.4400391e-06 0)
(9.7519407e-07 -1.4329176e-06 0)
(9.8793583e-07 -1.4244099e-06 0)
(9.9922978e-07 -1.4145758e-06 0)
(1.008996e-06 -1.4034811e-06 0)
(1.0171546e-06 -1.3911982e-06 0)
(1.0236269e-06 -1.3778063e-06 0)
(1.0283345e-06 -1.3633921e-06 0)
(1.0312002e-06 -1.3480511e-06 0)
(1.0321482e-06 -1.3318878e-06 0)
(1.0311044e-06 -1.315017e-06 0)
(1.0279973e-06 -1.2975653e-06 8.1921281e-31)
(1.0227585e-06 -1.2796717e-06 -2.8519556e-30)
(1.0153216e-06 -1.2614861e-06 -3.10922e-29)
(1.0056167e-06 -1.2431646e-06 -1.4923356e-28)
(9.9355155e-07 -1.2248576e-06 -5.9270274e-29)
(9.7899586e-07 -1.2067035e-06 2.9864328e-28)
(9.6172517e-07 -1.1888453e-06 -6.2185917e-28)
(9.4115366e-07 -1.1715645e-06 -5.3397723e-27)
(9.1858708e-07 -1.1558353e-06 1.5132152e-26)
(8.8745253e-07 -1.1362549e-06 1.1563668e-25)
(8.6828267e-07 -1.129698e-06 -1.8145744e-25)
(2.2536625e-07 -4.9338582e-07 2.4145788e-25)
(2.2590752e-07 -5.2636728e-07 1.3886279e-26)
(2.3121905e-07 -5.6430854e-07 -2.8257984e-27)
(2.3377305e-07 -5.9700007e-07 2.8560386e-28)
(2.3765492e-07 -6.3117951e-07 -4.788586e-29)
(2.4256233e-07 -6.6660141e-07 -3.5489233e-27)
(2.4844622e-07 -7.0353978e-07 -1.7049361e-28)
(2.557596e-07 -7.4141456e-07 2.5007489e-28)
(2.6452269e-07 -7.7975694e-07 2.1044057e-28)
(2.7470084e-07 -8.183385e-07 -3.9402734e-28)
(2.8627027e-07 -8.5698649e-07 2.141532e-28)
(2.9920813e-07 -8.9551893e-07 -4.0474548e-29)
(3.1347966e-07 -9.3375542e-07 2.2171922e-29)
(3.2904124e-07 -9.7152221e-07 2.1049416e-29)
(3.4583803e-07 -1.0086536e-06 2.5853566e-30)
(3.6380341e-07 -1.0449938e-06 -2.6709852e-30)
(3.8286058e-07 -1.0803995e-06 0)
(4.0292472e-07 -1.1147405e-06 0)
(4.2390678e-07 -1.1479018e-06 0)
(4.4571478e-07 -1.1797817e-06 0)
(4.6825488e-07 -1.2102901e-06 0)
(4.9143315e-07 -1.2393486e-06 0)
(5.151556e-07 -1.2668886e-06 0)
(5.3932783e-07 -1.2928498e-06 0)
(5.638562e-07 -1.3171803e-06 0)
(5.8864738e-07 -1.3398359e-06 0)
(6.1360777e-07 -1.3607785e-06 0)
(6.3864474e-07 -1.3799774e-06 0)
(7.3772061e-07 -1.4389288e-06 0)
(7.6176769e-07 -1.4491539e-06 0)
(7.8534735e-07 -1.457572e-06 0)
(8.0837196e-07 -1.4641909e-06 0)
(8.3075425e-07 -1.4690232e-06 0)
(8.5240837e-07 -1.4720861e-06 0)
(8.7324928e-07 -1.4734013e-06 0)
(8.9319226e-07 -1.472995e-06 0)
(9.1215376e-07 -1.470898e-06 0)
(9.3005085e-07 -1.4671452e-06 0)
(9.4680073e-07 -1.4617766e-06 0)
(9.6232151e-07 -1.4548367e-06 0)
(9.7653167e-07 -1.4463746e-06 0)
(9.8934972e-07 -1.4364454e-06 0)
(1.0006949e-06 -1.4251092e-06 0)
(1.0104867e-06 -1.412432e-06 0)
(1.0186448e-06 -1.3984867e-06 0)
(1.0250899e-06 -1.3833533e-06 0)
(1.0297429e-06 -1.3671191e-06 0)
(1.0325261e-06 -1.3498809e-06 0)
(1.033363e-06 -1.3317447e-06 0)
(1.0321793e-06 -1.3128275e-06 0)
(1.0289036e-06 -1.2932589e-06 -3.8532382e-30)
(1.0234682e-06 -1.2731809e-06 3.9228646e-30)
(1.0158091e-06 -1.2527457e-06 -5.5237814e-29)
(1.0058601e-06 -1.2321052e-06 1.9268799e-28)
(9.935329e-07 -1.2113896e-06 -3.7630251e-28)
(9.7871084e-07 -1.1906898e-06 -3.3716498e-28)
(9.6122243e-07 -1.17008e-06 2.1236618e-27)
(9.4057661e-07 -1.1497188e-06 7.893995e-29)
(9.1881788e-07 -1.1302715e-06 -1.8887187e-26)
(8.9320425e-07 -1.106514e-06 -5.5855209e-27)
(2.1794457e-07 -5.3181295e-07 -4.5405823e-25)
(2.2063126e-07 -5.6476798e-07 3.6625438e-26)
(2.2355273e-07 -6.0130853e-07 -2.7040326e-27)
(2.2622173e-07 -6.3513083e-07 7.1256793e-27)
(2.3153684e-07 -6.7133134e-07 -5.85165e-27)
(2.3742529e-07 -7.0978632e-07 -4.8079524e-29)
(2.4483983e-07 -7.4933547e-07 5.5861314e-28)
(2.5379391e-07 -7.8919939e-07 1.3277281e-28)
(2.6422531e-07 -8.2923029e-07 8.6068614e-29)
(2.760878e-07 -8.6930968e-07 -3.2198162e-28)
(2.8935153e-07 -9.0924163e-07 2.3132892e-28)
(3.0397645e-07 -9.4882807e-07 1.6905379e-29)
(3.1991883e-07 -9.8788432e-07 -8.020174e-29)
(3.3712434e-07 -1.0262366e-06 -3.3079516e-30)
(3.5552466e-07 -1.0637206e-06 1.698309e-29)
(3.7503827e-07 -1.1001856e-06 2.0277554e-30)
(3.9557473e-07 -1.1354961e-06 -3.6952632e-30)
(4.1703943e-07 -1.1695337e-06 0)
(4.3933529e-07 -1.2021948e-06 0)
(4.6236478e-07 -1.2333888e-06 0)
(4.860309e-07 -1.2630374e-06 0)
(5.1023727e-07 -1.2910722e-06 0)
(5.348875e-07 -1.3174332e-06 0)
(5.5988626e-07 -1.342069e-06 0)
(5.8513869e-07 -1.3649357e-06 0)
(6.1054973e-07 -1.3859957e-06 0)
(6.3602538e-07 -1.4052187e-06 0)
(6.6147215e-07 -1.4225805e-06 0)
(6.8679664e-07 -1.4380628e-06 0)
(7.1190676e-07 -1.4516535e-06 0)
(7.3671131e-07 -1.4633461e-06 0)
(7.6111944e-07 -1.473139e-06 0)
(7.8504193e-07 -1.4810363e-06 0)
(8.0839053e-07 -1.4870467e-06 0)
(8.3107755e-07 -1.4911837e-06 0)
(8.5301683e-07 -1.4934656e-06 0)
(8.7412311e-07 -1.4939148e-06 0)
(8.9431157e-07 -1.4925584e-06 0)
(9.1349866e-07 -1.4894276e-06 0)
(9.3160148e-07 -1.4845584e-06 0)
(9.4853733e-07 -1.4779909e-06 0)
(9.6422447e-07 -1.4697701e-06 0)
(9.7858155e-07 -1.4599459e-06 0)
(9.915273e-07 -1.4485733e-06 0)
(1.0029812e-06 -1.4357129e-06 0)
(1.012863e-06 -1.4214312e-06 0)
(1.0210929e-06 -1.4058016e-06 0)
(1.0275917e-06 -1.3889046e-06 0)
(1.0322813e-06 -1.3708285e-06 0)
(1.0350845e-06 -1.3516715e-06 0)
(1.035926e-06 -1.3315414e-06 0)
(1.0347329e-06 -1.3105581e-06 0)
(1.0314361e-06 -1.2888551e-06 0)
(1.0259711e-06 -1.2665801e-06 -1.8385567e-30)
(1.0182788e-06 -1.2438928e-06 -1.0972121e-29)
(1.0082989e-06 -1.2209524e-06 -5.9550507e-29)
(9.9594719e-07 -1.1978944e-06 1.6608958e-28)
(9.8110834e-07 -1.1748193e-06 -1.0528961e-27)
(9.6362393e-07 -1.1518596e-06 2.7470143e-27)
(9.4297375e-07 -1.1293689e-06 -2.3816972e-27)
(9.2124208e-07 -1.1083162e-06 2.1489819e-28)
(8.9792731e-07 -1.0848936e-06 7.2389472e-27)
(2.1437442e-07 -5.7249026e-07 -2.0326105e-25)
(2.1098922e-07 -6.0504917e-07 -2.7628766e-26)
(2.1378755e-07 -6.3630011e-07 -3.7176835e-26)
(2.2078537e-07 -6.7604659e-07 2.0587108e-26)
(2.2652568e-07 -7.1628234e-07 -1.297646e-27)
(2.3384195e-07 -7.5749273e-07 3.5622799e-28)
(2.4293029e-07 -7.9879355e-07 -6.9448428e-28)
(2.5365817e-07 -8.4026472e-07 -2.4394623e-28)
(2.6585799e-07 -8.818317e-07 -1.6513506e-27)
(2.7949663e-07 -9.2323941e-07 -7.0332144e-28)
(2.9451952e-07 -9.6424247e-07 3.514063e-28)
(3.10879e-07 -1.0046388e-06 -1.3247355e-28)
(3.2852369e-07 -1.0442496e-06 3.7667403e-29)
(3.4738661e-07 -1.0829051e-06 -3.8375769e-29)
(3.6738229e-07 -1.1204489e-06 1.2691738e-30)
(3.8841497e-07 -1.1567415e-06 2.3729697e-34)
(4.1038388e-07 -1.1916622e-06 0)
(4.3318717e-07 -1.225107e-06 0)
(4.5672354e-07 -1.2569858e-06 0)
(4.8089338e-07 -1.287221e-06 0)
(5.0559833e-07 -1.3157451e-06 0)
(5.3074048e-07 -1.3424988e-06 0)
(5.5622313e-07 -1.3674313e-06 0)
(5.8195011e-07 -1.3904992e-06 0)
(6.0782508e-07 -1.4116652e-06 0)
(6.3375275e-07 -1.4308996e-06 0)
(6.596384e-07 -1.4481789e-06 0)
(6.8538747e-07 -1.4634855e-06 0)
(7.1090683e-07 -1.4768082e-06 0)
(7.3610436e-07 -1.4881414e-06 0)
(7.608885e-07 -1.4974846e-06 0)
(7.8516947e-07 -1.504843e-06 0)
(8.0885867e-07 -1.5102264e-06 0)
(8.3186819e-07 -1.5136495e-06 0)
(8.5411185e-07 -1.5151315e-06 0)
(8.7550452e-07 -1.5146959e-06 0)
(8.9596162e-07 -1.5123706e-06 0)
(9.1539996e-07 -1.5081878e-06 0)
(9.337371e-07 -1.5021838e-06 0)
(9.5089089e-07 -1.4943997e-06 0)
(9.6678022e-07 -1.4848808e-06 0)
(9.8132441e-07 -1.4736774e-06 0)
(9.9444296e-07 -1.4608451e-06 0)
(1.0060562e-06 -1.4464449e-06 0)
(1.0160848e-06 -1.4305437e-06 0)
(1.0244501e-06 -1.4132156e-06 0)
(1.0310741e-06 -1.3945418e-06 0)
(1.0358801e-06 -1.374612e-06 0)
(1.0387928e-06 -1.3535258e-06 0)
(1.0397389e-06 -1.3313934e-06 0)
(1.038648e-06 -1.3083381e-06 0)
(1.0354539e-06 -1.2844982e-06 0)
(1.0300956e-06 -1.2600286e-06 3.6607168e-31)
(1.0225171e-06 -1.2350985e-06 6.0465923e-30)
(1.0126604e-06 -1.2098796e-06 -1.5795955e-29)
(1.0004383e-06 -1.1845213e-06 -4.0670041e-29)
(9.8572302e-07 -1.1591456e-06 -3.0404747e-28)
(9.6833927e-07 -1.1339457e-06 -4.2356688e-28)
(9.4772014e-07 -1.1094336e-06 1.2013576e-27)
(9.2590652e-07 -1.0867376e-06 -2.6099095e-28)
(9.0291031e-07 -1.0616714e-06 2.3940682e-28)
(2.0691053e-07 -6.4304311e-07 2.2617128e-25)
(2.0939657e-07 -6.7869362e-07 4.5230432e-26)
(2.1655567e-07 -7.2326636e-07 2.9997624e-27)
(2.2312564e-07 -7.6550031e-07 -1.0965508e-26)
(2.3198946e-07 -8.0819548e-07 -5.8861191e-27)
(2.4308083e-07 -8.5122451e-07 6.9453053e-27)
(2.5565937e-07 -8.9442473e-07 -1.6690686e-27)
(2.697251e-07 -9.3745281e-07 -1.7834774e-27)
(2.8519983e-07 -9.799823e-07 -1.4999001e-27)
(3.0201946e-07 -1.0217919e-06 -2.5421343e-28)
(3.2013658e-07 -1.0627104e-06 2.4517307e-28)
(3.3948952e-07 -1.1025692e-06 1.6312456e-29)
(3.5999112e-07 -1.1412116e-06 -3.6114272e-29)
(3.8154036e-07 -1.1784973e-06 1.3691817e-29)
(4.0403064e-07 -1.2143059e-06 -1.9342202e-30)
(4.2735554e-07 -1.2485346e-06 0)
(4.5141067e-07 -1.2810953e-06 0)
(4.7609454e-07 -1.3119123e-06 0)
(5.0130749e-07 -1.3409194e-06 0)
(5.2695054e-07 -1.3680582e-06 0)
(5.5292599e-07 -1.3932787e-06 0)
(5.7913658e-07 -1.4165377e-06 0)
(6.0548475e-07 -1.4377986e-06 0)
(6.3187396e-07 -1.457032e-06 0)
(6.5820827e-07 -1.4742152e-06 0)
(6.8439191e-07 -1.4893314e-06 0)
(7.1033076e-07 -1.5023704e-06 0)
(7.3593185e-07 -1.5133278e-06 0)
(7.61103e-07 -1.5222043e-06 0)
(7.8575402e-07 -1.5290064e-06 0)
(8.0979614e-07 -1.5337454e-06 0)
(8.331415e-07 -1.5364371e-06 0)
(8.5570414e-07 -1.537102e-06 0)
(8.7739937e-07 -1.5357646e-06 0)
(8.9814318e-07 -1.532454e-06 0)
(9.178531e-07 -1.5272032e-06 0)
(9.3644752e-07 -1.5200493e-06 0)
(9.5384523e-07 -1.5110342e-06 0)
(9.6996614e-07 -1.5002037e-06 0)
(9.8473069e-07 -1.4876087e-06 0)
(9.9805959e-07 -1.4733052e-06 0)
(1.0098745e-06 -1.4573549e-06 0)
(1.0200975e-06 -1.4398252e-06 0)
(1.0286513e-06 -1.4207911e-06 0)
(1.0354601e-06 -1.4003348e-06 0)
(1.0404489e-06 -1.3785474e-06 0)
(1.0435446e-06 -1.3555304e-06 0)
(1.0446767e-06 -1.3313969e-06 0)
(1.0437775e-06 -1.3062735e-06 0)
(1.0407837e-06 -1.2803039e-06 0)
(1.0356369e-06 -1.2536495e-06 -8.5376045e-31)
(1.0282828e-06 -1.2264892e-06 3.0762568e-30)
(1.0186627e-06 -1.1990057e-06 -6.7017443e-29)
(1.0066825e-06 -1.1713595e-06 2.7303514e-29)
(9.9219808e-07 -1.1436878e-06 -2.8383312e-29)
(9.7501111e-07 -1.1162207e-06 5.638646e-28)
(9.5451651e-07 -1.0895714e-06 -5.6847624e-28)
(9.326874e-07 -1.0650138e-06 1.0022902e-28)
(9.0966651e-07 -1.0382681e-06 1.3767623e-27)
(2.0126937e-07 -6.8537454e-07 1.4498831e-25)
(2.0543979e-07 -7.2803721e-07 -2.6953763e-26)
(2.1308127e-07 -7.7442004e-07 7.4376815e-27)
(2.2034425e-07 -8.174244e-07 1.4139775e-26)
(2.3237467e-07 -8.6206907e-07 -1.2305964e-26)
(2.4552656e-07 -9.070172e-07 7.7057441e-27)
(2.6010678e-07 -9.5183528e-07 -1.0676821e-27)
(2.7610517e-07 -9.9603181e-07 5.3120245e-28)
(2.9343738e-07 -1.0393446e-06 -1.1095711e-27)
(3.1206449e-07 -1.0816302e-06 8.5622544e-29)
(3.3193765e-07 -1.122729e-06 4.8172648e-28)
(3.5296827e-07 -1.1624909e-06 1.894321e-29)
(3.7505093e-07 -1.2007787e-06 -3.4294524e-29)
(3.9807428e-07 -1.2374769e-06 3.4500849e-30)
(4.2192857e-07 -1.272487e-06 -2.0370611e-30)
(4.4650764e-07 -1.305725e-06 -1.6868649e-30)
(4.7170947e-07 -1.3371178e-06 0)
(4.9743371e-07 -1.3666011e-06 0)
(5.2358115e-07 -1.3941175e-06 0)
(5.500534e-07 -1.4196174e-06 0)
(5.7675216e-07 -1.4430579e-06 0)
(6.0357866e-07 -1.4644028e-06 0)
(6.3043498e-07 -1.4836231e-06 0)
(6.5722381e-07 -1.5006969e-06 0)
(6.8384813e-07 -1.5156082e-06 0)
(7.1021273e-07 -1.5283482e-06 0)
(7.3622383e-07 -1.5389136e-06 0)
(7.6178869e-07 -1.5473069e-06 0)
(7.8681685e-07 -1.5535361e-06 0)
(8.1121953e-07 -1.5576139e-06 0)
(8.3490914e-07 -1.5595577e-06 0)
(8.5780021e-07 -1.5593894e-06 0)
(8.7980877e-07 -1.557135e-06 0)
(9.0085167e-07 -1.5528245e-06 0)
(9.2084749e-07 -1.5464922e-06 0)
(9.397158e-07 -1.538176e-06 0)
(9.5737665e-07 -1.5279185e-06 0)
(9.7375131e-07 -1.5157663e-06 0)
(9.8876168e-07 -1.5017709e-06 0)
(1.00233e-06 -1.4859891e-06 0)
(1.0143794e-06 -1.4684828e-06 0)
(1.0248339e-06 -1.4493206e-06 0)
(1.033618e-06 -1.4285783e-06 0)
(1.0406576e-06 -1.4063395e-06 0)
(1.0458802e-06 -1.3826966e-06 0)
(1.049215e-06 -1.3577537e-06 0)
(1.0505938e-06 -1.3316265e-06 0)
(1.049952e-06 -1.3044454e-06 0)
(1.0472284e-06 -1.2763587e-06 0)
(1.0423663e-06 -1.2475342e-06 -3.5273783e-30)
(1.0353117e-06 -1.2181577e-06 3.8296597e-30)
(1.0260022e-06 -1.1884199e-06 6.0578118e-29)
(1.014335e-06 -1.1584898e-06 -7.703798e-29)
(1.0001467e-06 -1.1285129e-06 1.5226081e-28)
(9.832099e-07 -1.0987469e-06 4.7030128e-28)
(9.628894e-07 -1.0698977e-06 9.291853e-28)
(9.4109061e-07 -1.0434375e-06 1.1202709e-28)
(9.1802116e-07 -1.0153134e-06 -1.0412457e-27)
(2.015607e-07 -7.4010576e-07 -4.4806103e-25)
(2.002806e-07 -7.8256086e-07 -1.1231443e-26)
(2.0701622e-07 -8.23839e-07 -3.5073395e-26)
(2.2204127e-07 -8.7313328e-07 2.4131764e-27)
(2.3582602e-07 -9.1983039e-07 -6.7489417e-27)
(2.508349e-07 -9.6642001e-07 1.1900239e-27)
(2.6736637e-07 -1.0123805e-06 1.9693837e-27)
(2.8524334e-07 -1.0572768e-06 1.5632036e-27)
(3.0440944e-07 -1.1009968e-06 -9.6274729e-28)
(3.2483425e-07 -1.1433833e-06 2.4902824e-28)
(3.4641924e-07 -1.1842923e-06 -8.194308e-29)
(3.6905093e-07 -1.2235928e-06 -2.4389519e-29)
(3.9261342e-07 -1.2611803e-06 1.1481246e-29)
(4.1699688e-07 -1.2969671e-06 1.5668839e-29)
(4.420969e-07 -1.330876e-06 3.9486067e-34)
(4.6781262e-07 -1.362838e-06 0)
(4.9404479e-07 -1.3927909e-06 0)
(5.2069432e-07 -1.4206779e-06 0)
(5.476623e-07 -1.4464495e-06 0)
(5.7484935e-07 -1.4700627e-06 0)
(6.0215519e-07 -1.4914814e-06 0)
(6.2948024e-07 -1.510677e-06 0)
(6.5672558e-07 -1.5276282e-06 0)
(6.8379269e-07 -1.5423204e-06 0)
(7.1058519e-07 -1.5547459e-06 0)
(7.3700843e-07 -1.5649035e-06 0)
(7.6296913e-07 -1.5727973e-06 0)
(7.8837669e-07 -1.5784371e-06 0)
(8.1314251e-07 -1.5818376e-06 0)
(8.3717944e-07 -1.5830178e-06 0)
(8.6040279e-07 -1.5820014e-06 0)
(8.8272954e-07 -1.5788159e-06 0)
(9.0407773e-07 -1.5734927e-06 0)
(9.2436726e-07 -1.5660672e-06 0)
(9.4351916e-07 -1.5565784e-06 0)
(9.6145502e-07 -1.5450697e-06 0)
(9.7809775e-07 -1.5315887e-06 0)
(9.9337093e-07 -1.5161873e-06 0)
(1.0071985e-06 -1.498923e-06 0)
(1.0195054e-06 -1.4798587e-06 0)
(1.0302173e-06 -1.4590637e-06 0)
(1.0392607e-06 -1.4366148e-06 0)
(1.0465633e-06 -1.412597e-06 0)
(1.0520545e-06 -1.3871047e-06 0)
(1.0556657e-06 -1.3602441e-06 0)
(1.057331e-06 -1.3321339e-06 0)
(1.0569874e-06 -1.3029081e-06 0)
(1.0545758e-06 -1.2727191e-06 0)
(1.0500402e-06 -1.2417393e-06 -5.9449459e-31)
(1.0433252e-06 -1.2101591e-06 8.8468219e-30)
(1.0343632e-06 -1.1781729e-06 -3.1883722e-29)
(1.0230385e-06 -1.1459512e-06 5.4659133e-28)
(1.009157e-06 -1.1136357e-06 5.1376027e-29)
(9.924209e-07 -1.0814765e-06 -8.0352352e-28)
(9.7209163e-07 -1.0501896e-06 4.6578547e-28)
(9.4990821e-07 -1.0212455e-06 -4.8014468e-27)
(9.2609019e-07 -9.9058806e-07 -4.0044026e-26)
(2.020073e-07 -8.3625843e-07 1.6851979e-25)
(2.1155514e-07 -8.8238846e-07 6.1638056e-26)
(2.2734307e-07 -9.3326604e-07 2.8196031e-27)
(2.4236244e-07 -9.8143584e-07 3.1419591e-27)
(2.5919345e-07 -1.0290707e-06 -2.0654756e-27)
(2.775638e-07 -1.075558e-06 -7.5894601e-28)
(2.972648e-07 -1.1207737e-06 2.101401e-27)
(3.1827094e-07 -1.1645079e-06 2.5735947e-28)
(3.4044247e-07 -1.2066046e-06 -9.2922996e-28)
(3.6364204e-07 -1.2469335e-06 2.2893417e-28)
(3.8774588e-07 -1.2854101e-06 -6.2841374e-29)
(4.1265045e-07 -1.3219671e-06 1.5522916e-29)
(4.3825931e-07 -1.3565399e-06 -1.5126221e-29)
(4.6447658e-07 -1.3890654e-06 7.8940555e-31)
(4.9120605e-07 -1.4194828e-06 0)
(5.1834945e-07 -1.4477352e-06 0)
(5.4580727e-07 -1.4737724e-06 0)
(5.7347854e-07 -1.4975508e-06 0)
(6.012609e-07 -1.5190339e-06 0)
(6.2905262e-07 -1.5381935e-06 0)
(6.5675265e-07 -1.5550093e-06 0)
(6.8426072e-07 -1.5694681e-06 0)
(7.1147904e-07 -1.5815639e-06 0)
(7.3831202e-07 -1.5912976e-06 0)
(7.6466591e-07 -1.5986754e-06 0)
(7.9045002e-07 -1.6037095e-06 0)
(8.1557612e-07 -1.6064167e-06 0)
(8.3995774e-07 -1.6068182e-06 0)
(8.635112e-07 -1.6049395e-06 0)
(8.8615471e-07 -1.6008099e-06 0)
(9.0780775e-07 -1.5944624e-06 0)
(9.2839183e-07 -1.5859336e-06 0)
(9.4782967e-07 -1.5752637e-06 0)
(9.6604466e-07 -1.5624972e-06 0)
(9.8296151e-07 -1.5476823e-06 0)
(9.9850563e-07 -1.5308717e-06 0)
(1.0126027e-06 -1.5121236e-06 0)
(1.0251796e-06 -1.4915017e-06 0)
(1.0361635e-06 -1.4690759e-06 0)
(1.0454825e-06 -1.4449244e-06 0)
(1.053066e-06 -1.4191333e-06 0)
(1.0588448e-06 -1.3917991e-06 0)
(1.0627516e-06 -1.3630302e-06 0)
(1.0647218e-06 -1.3329481e-06 0)
(1.0646938e-06 -1.3016902e-06 0)
(1.062609e-06 -1.2694125e-06 8.4127556e-30)
(1.0584119e-06 -1.2362908e-06 -1.2255005e-29)
(1.0520459e-06 -1.2025185e-06 -1.2685131e-30)
(1.043441e-06 -1.1682928e-06 -1.8711136e-28)
(1.0324765e-06 -1.1337852e-06 9.3045859e-29)
(1.0189386e-06 -1.099132e-06 -1.5752668e-27)
(1.0024651e-06 -1.0645622e-06 -1.539153e-27)
(9.8218171e-07 -1.0307607e-06 8.3492127e-27)
(9.5917214e-07 -9.9920851e-07 -1.0835707e-26)
(9.3215917e-07 -9.6585935e-07 -2.9606526e-26)
(2.0824044e-07 -8.9761942e-07 -3.6896786e-25)
(2.1839355e-07 -9.4391927e-07 -7.5614259e-27)
(2.3506228e-07 -9.9683213e-07 3.8383092e-27)
(2.519073e-07 -1.0461497e-06 6.2895373e-28)
(2.7054341e-07 -1.0940918e-06 -4.2046144e-27)
(2.9070589e-07 -1.1408567e-06 1.7353703e-27)
(3.1232511e-07 -1.1860281e-06 -4.4836522e-27)
(3.3512859e-07 -1.2293844e-06 2.0506762e-27)
(3.589229e-07 -1.2707726e-06 -6.8776771e-28)
(3.8356769e-07 -1.3101438e-06 -7.576226e-29)
(4.0897629e-07 -1.3474667e-06 1.3667629e-29)
(4.350711e-07 -1.3826983e-06 2.1247025e-29)
(4.6176848e-07 -1.4157838e-06 1.6357082e-30)
(4.8897782e-07 -1.4466636e-06 2.4478015e-30)
(5.1660181e-07 -1.4752793e-06 0)
(5.4453946e-07 -1.5015785e-06 0)
(5.7268743e-07 -1.5255164e-06 0)
(6.009403e-07 -1.5470557e-06 0)
(6.291933e-07 -1.5661687e-06 0)
(6.5734271e-07 -1.5828363e-06 0)
(6.8528602e-07 -1.597047e-06 0)
(7.1292382e-07 -1.6087973e-06 0)
(7.4015951e-07 -1.6180904e-06 0)
(7.6689885e-07 -1.6249355e-06 0)
(7.9305127e-07 -1.6293473e-06 0)
(8.1852905e-07 -1.6313453e-06 0)
(8.4324668e-07 -1.6309531e-06 0)
(8.671217e-07 -1.6281984e-06 0)
(8.9007386e-07 -1.6231125e-06 0)
(9.1202434e-07 -1.61573e-06 0)
(9.3289649e-07 -1.6060891e-06 0)
(9.5261498e-07 -1.5942312e-06 0)
(9.7110515e-07 -1.5802017e-06 0)
(9.8829367e-07 -1.5640496e-06 0)
(1.0041078e-06 -1.5458285e-06 0)
(1.0184752e-06 -1.525597e-06 0)
(1.031324e-06 -1.5034195e-06 0)
(1.0425833e-06 -1.4793666e-06 0)
(1.052182e-06 -1.4535173e-06 0)
(1.0600507e-06 -1.4259593e-06 0)
(1.0661206e-06 -1.3967903e-06 0)
(1.070325e-06 -1.3661211e-06 0)
(1.0725992e-06 -1.3340759e-06 0)
(1.0728813e-06 -1.3007951e-06 0)
(1.0711123e-06 -1.266438e-06 -2.1069122e-30)
(1.0672358e-06 -1.2311836e-06 -1.9290489e-30)
(1.0611946e-06 -1.1952281e-06 5.2173028e-29)
(1.0529195e-06 -1.1587736e-06 2.4151688e-28)
(1.0422964e-06 -1.1220018e-06 1.9222876e-28)
(1.0291203e-06 -1.0850598e-06 -8.582243e-28)
(1.0130363e-06 -1.0481675e-06 -3.8141656e-27)
(9.9321635e-07 -1.0119225e-06 3.2887037e-27)
(9.6977361e-07 -9.7772599e-07 2.1196611e-26)
(9.3652507e-07 -9.4199879e-07 -4.4543724e-26)
(9.1677246e-07 -9.0790426e-07 1.9505658e-25)
(2.1485529e-07 -9.6013676e-07 -1.1892287e-25)
(2.2634746e-07 -1.0095763e-06 -6.2915729e-27)
(2.4561407e-07 -1.0637143e-06 -3.3283799e-27)
(2.6431766e-07 -1.1128101e-06 -5.7293758e-27)
(2.8475384e-07 -1.1610845e-06 1.1250726e-26)
(3.0704514e-07 -1.2078074e-06 -1.856707e-27)
(3.3055524e-07 -1.2525428e-06 -5.7376157e-27)
(3.5498356e-07 -1.2950489e-06 4.1350384e-27)
(3.8016552e-07 -1.3353343e-06 2.9450465e-28)
(4.0605146e-07 -1.3734279e-06 6.1576412e-29)
(4.3259965e-07 -1.4093204e-06 -1.0635288e-29)
(4.5974772e-07 -1.442969e-06 -4.318283e-30)
(4.8741346e-07 -1.4743149e-06 4.7751016e-30)
(5.1550077e-07 -1.5032965e-06 -3.9758501e-30)
(5.4390577e-07 -1.5298577e-06 0)
(5.7252068e-07 -1.5539514e-06 0)
(6.0123573e-07 -1.5755398e-06 0)
(6.29942e-07 -1.5945957e-06 0)
(6.5853229e-07 -1.6111019e-06 0)
(6.8690141e-07 -1.6250492e-06 0)
(7.1494808e-07 -1.6364372e-06 0)
(7.4257463e-07 -1.6452724e-06 0)
(7.6968646e-07 -1.6515672e-06 0)
(7.9619326e-07 -1.6553395e-06 0)
(8.2200809e-07 -1.6566119e-06 0)
(8.4704664e-07 -1.6554108e-06 0)
(8.7122801e-07 -1.6517666e-06 0)
(8.9447375e-07 -1.6457124e-06 0)
(9.16707e-07 -1.637285e-06 0)
(9.3785322e-07 -1.6265241e-06 0)
(9.5783921e-07 -1.6134722e-06 0)
(9.7659243e-07 -1.5981759e-06 0)
(9.9404162e-07 -1.5806848e-06 0)
(1.010116e-06 -1.561053e-06 0)
(1.0247448e-06 -1.5393398e-06 0)
(1.0378578e-06 -1.5156096e-06 0)
(1.0493849e-06 -1.4899337e-06 0)
(1.059256e-06 -1.4623917e-06 0)
(1.0674016e-06 -1.4330718e-06 0)
(1.0737528e-06 -1.4020733e-06 0)
(1.0782415e-06 -1.3695086e-06 0)
(1.0808016e-06 -1.3355041e-06 0)
(1.081369e-06 -1.300203e-06 0)
(1.0798822e-06 -1.2637677e-06 -7.7520579e-31)
(1.0762821e-06 -1.22638e-06 -1.5850509e-29)
(1.0705098e-06 -1.1882395e-06 4.6161774e-29)
(1.062499e-06 -1.1495549e-06 -2.1386058e-28)
(1.0521526e-06 -1.1105216e-06 4.372077e-28)
(1.039307e-06 -1.0713026e-06 -1.31307e-28)
(1.0237254e-06 -1.0320847e-06 3.0357797e-27)
(1.0049244e-06 -9.932228e-07 1.9211902e-27)
(9.8222678e-07 -9.5511079e-07 -1.5681876e-26)
(9.590279e-07 -9.1831875e-07 8.0549109e-27)
(9.3645687e-07 -8.8008812e-07 8.5972374e-26)
(2.2427707e-07 -1.0284414e-06 2.629822e-26)
(2.3816882e-07 -1.0795418e-06 2.7235594e-26)
(2.5904133e-07 -1.1315328e-06 4.2838104e-27)
(2.7953351e-07 -1.1813578e-06 1.863883e-27)
(3.0255118e-07 -1.2297495e-06 5.4308342e-27)
(3.2683552e-07 -1.2759963e-06 1.8391294e-27)
(3.5192072e-07 -1.319679e-06 -1.4187048e-27)
(3.7761381e-07 -1.360908e-06 4.2770545e-29)
(4.0393455e-07 -1.3997914e-06 -2.3251493e-28)
(4.3089457e-07 -1.4363615e-06 3.4245783e-29)
(4.5845925e-07 -1.4705893e-06 -8.6836769e-29)
(4.8655614e-07 -1.5024145e-06 -7.2784089e-30)
(5.1508887e-07 -1.531771e-06 0)
(5.439483e-07 -1.5585983e-06 0)
(5.7302001e-07 -1.5828463e-06 0)
(6.0218785e-07 -1.6044772e-06 0)
(6.3133748e-07 -1.6234653e-06 0)
(6.6035739e-07 -1.6397957e-06 0)
(6.8913928e-07 -1.653463e-06 0)
(7.1757986e-07 -1.6644705e-06 0)
(7.4558045e-07 -1.6728288e-06 0)
(7.7304626e-07 -1.6785544e-06 0)
(7.9988752e-07 -1.681669e-06 0)
(8.2601841e-07 -1.6821987e-06 0)
(8.5135613e-07 -1.6801732e-06 0)
(8.7582168e-07 -1.6756255e-06 0)
(8.9933871e-07 -1.6685914e-06 0)
(9.2183262e-07 -1.6591096e-06 0)
(9.432312e-07 -1.6472213e-06 0)
(9.6346361e-07 -1.6329704e-06 0)
(9.8245956e-07 -1.6164042e-06 0)
(1.0001499e-06 -1.5975732e-06 0)
(1.0164659e-06 -1.5765316e-06 0)
(1.0313383e-06 -1.5533389e-06 0)
(1.0446981e-06 -1.5280596e-06 0)
(1.0564759e-06 -1.5007648e-06 0)
(1.0666017e-06 -1.471534e-06 0)
(1.0750054e-06 -1.4404559e-06 0)
(1.0816162e-06 -1.40763e-06 0)
(1.0863638e-06 -1.3731697e-06 0)
(1.0891784e-06 -1.3372031e-06 0)
(1.0899912e-06 -1.2998752e-06 0)
(1.0887354e-06 -1.2613511e-06 0)
(1.0853461e-06 -1.2218156e-06 1.8122314e-30)
(1.07976e-06 -1.181472e-06 -5.9125167e-30)
(1.0719109e-06 -1.1405354e-06 -1.8314058e-28)
(1.0617167e-06 -1.0992141e-06 7.9556491e-28)
(1.0490539e-06 -1.0576866e-06 7.1084872e-28)
(1.0337624e-06 -1.0161196e-06 -9.7837786e-28)
(1.0155986e-06 -9.7477711e-07 -8.6381576e-28)
(9.9406843e-07 -9.3396944e-07 1.6717009e-27)
(9.7153283e-07 -8.9423266e-07 5.6151007e-27)
(9.4543857e-07 -8.5095683e-07 8.3931303e-26)
(2.3875493e-07 -1.099493e-06 -1.2888559e-25)
(2.5256417e-07 -1.1464695e-06 -5.3467945e-26)
(2.7509562e-07 -1.2015209e-06 7.8641312e-27)
(2.9920469e-07 -1.2519137e-06 -1.9136281e-26)
(3.2423297e-07 -1.2997606e-06 1.3687795e-27)
(3.4987574e-07 -1.3445897e-06 -8.4218801e-28)
(3.7597409e-07 -1.3867699e-06 2.206271e-27)
(4.0265661e-07 -1.4264806e-06 4.725147e-28)
(4.2998022e-07 -1.4637684e-06 3.0996516e-28)
(4.5792911e-07 -1.4986093e-06 2.0105142e-29)
(4.8643642e-07 -1.5309398e-06 -1.296681e-29)
(5.1540104e-07 -1.5606879e-06 -4.9966307e-30)