/*--------------------------------*- C++ -*----------------------------------*\
| =========                 |                                                 |
| \\      /  F ield         | OpenFOAM: The Open Source CFD Toolbox           |
|  \\    /   O peration     | Version:  2412                                  |
|   \\  /    A nd           | Website:  www.openfoam.com                      |
|    \\/     M anipulation  |                                                 |
\*---------------------------------------------------------------------------*/
FoamFile
{
    version     2.0;
    format      ascii;
    arch        "LSB;label=32;scalar=64";
    class       volScalarField;
    location    "15174";
    object      p;
}
// * * * * * * * * * * * * * * * * * * * * * * * * * * * * * * * * * * * * * //

dimensions      [0 2 -2 0 0 0 0];

internalField   nonuniform List<scalar> 
57557
(
0.00010459801
0.00010364748
0.00010268281
0.00010187397
0.00010122845
0.00010072493
0.00010038707
0.00010025818
0.00010065742
0.00010071447
0.00010242266
0.00010849243
0.00010738349
0.00010620909
0.0001052582
0.00010437727
0.00010363919
0.00010306069
0.00010263191
0.00010230296
0.00010227549
0.0001032451
0.00010415529
0.00010982997
0.00010871863
0.00010765169
0.0001067374
0.00010592857
0.00010526163
0.00010476297
0.00010440827
0.00010417028
0.00010534872
0.00010601744
0.00011201815
0.00011219852
0.00011102054
0.00010994765
0.00010895442
0.00010808381
0.00010732537
0.00010669977
0.00010622005
0.00010578097
0.00010545188
0.00010706236
0.0001065737
0.00011321786
0.00011210012
0.00011107478
0.00011013822
0.0001093124
0.00010860054
0.0001080198
0.00010755002
0.00010712842
0.00010769936
0.0001088156
0.00011423057
0.00011415173
0.00011308665
0.00011210585
0.00011121505
0.00011042938
0.0001097626
0.00010923317
0.0001088308
0.00010887195
0.00010966121
0.00011339903
0.00011501276
0.00011398911
0.00011304372
0.00011218401
0.00011142126
0.00011076532
0.00011017164
0.000109544
0.00010996512
0.00010893554
0.00011580877
0.0001148155
0.00011389658
0.00011306126
0.00011232575
0.0001116961
0.00011109539
0.00011069947
0.00011193378
0.00011220229
0.00011654188
0.00011556839
0.0001146657
0.00011384694
0.00011313818
0.00011250317
0.00011192393
0.00011287731
0.00011362017
0.00012082288
0.00011721276
0.00011624586
0.000115341
0.00011450906
0.00011375261
0.0001129091
0.00011216812
0.0001131932
0.00011295418
0.00011782816
0.00011686343
0.00011596
0.0001151421
0.00011439663
0.00011359611
0.00011434225
0.00011558288
0.00012304829
0.00011838628
0.00011740984
0.0001164845
0.00011563204
0.00011478317
0.00011380468
0.00011450919
0.00011400858
0.00011889665
0.00011790197
0.00011695074
0.00011605648
0.00011507035
0.00011422065
0.00011543219
0.0001172743
0.00011936695
0.00011835037
0.00011737415
0.00011643524
0.00011537087
0.00011588788
0.00011705773
0.00012629162
0.00011979946
0.00011874209
0.00011768773
0.00011658025
0.00011506616
0.00011489075
0.00011437254
0.00012022692
0.00011914825
0.00011805869
0.00011690092
0.00011527061
0.00011502685
0.00011589646
0.00012065915
0.00011957843
0.00011848614
0.00011733422
0.00011570972
0.00011550374
0.00011725579
0.000121101
0.00012003561
0.00011896334
0.00011783852
0.00011624311
0.00011602404
0.00011810955
0.00012155445
0.00012052314
0.00011949791
0.00011842788
0.00011690661
0.00011674128
0.00011890645
0.00012201493
0.00012103732
0.00012009453
0.0001191189
0.00011783426
0.00011825562
0.0001205428
0.00012246098
0.00012153436
0.00012064303
0.00011960874
0.00011859566
0.00011991894
0.00012411452
0.00012289665
0.00012204273
0.00012124437
0.0001203991
0.0001213884
0.00012191778
0.00013365108
0.00012325549
0.00012238184
0.0001214524
0.00012008909
0.00011997595
0.00011821065
0.00012363201
0.00012281381
0.00012196874
0.00012069493
0.00012075682
0.00012094269
0.00012400979
0.00012330416
0.00012270535
0.00012206643
0.00012342103
0.00012714846
0.0001371899
0.00012428032
0.00012357351
0.00012293965
0.00012223075
0.00012173283
0.00012274368
0.00012548645
0.00012602642
0.00012524549
0.00012450813
0.00012381665
0.00012319184
0.00012257516
0.00012183265
0.00012233427
0.00012320493
0.00012616508
0.00012540274
0.00012468592
0.00012400621
0.00012337131
0.00012272489
0.00012181153
0.00012202173
0.00012233362
0.00012625752
0.00012551672
0.00012482516
0.0001241695
0.00012354876
0.0001229017
0.00012194856
0.00012210943
0.00012193974
0.00012792836
0.00012707549
0.00012629684
0.00012558685
0.00012492775
0.00012431532
0.00012374094
0.00012314197
0.00012221191
0.00012234014
0.00012163201
0.00013004141
0.0001287926
0.00012788382
0.00012704062
0.00012627391
0.0001256014
0.00012498724
0.00012444095
0.00012395728
0.00012348699
0.00012269066
0.00012296568
0.00012317172
0.00012815941
0.00013116506
0.00012891016
0.00013011754
0.00012854649
0.00012771916
0.00012692159
0.00012617903
0.00012554187
0.00012498841
0.00012453253
0.00012420017
0.00012400789
0.00012377596
0.00012519362
0.00012923012
0.00013545518
0.00012976131
0.00012984424
0.00013031937
0.00012847367
0.00012755202
0.0001267467
0.00012601552
0.00012539301
0.000124882
0.00012449045
0.00012424491
0.00012417598
0.00012418925
0.0001247305
0.00012629959
0.00012565418
0.00012421354
0.000128674
0.00012730198
0.00012642237
0.00012574648
0.00012513977
0.00012464978
0.00012430354
0.00012412973
0.00012414943
0.00012431052
0.00012454027
0.0001258314
0.00012564759
0.00012465018
0.00012765692
0.00012617715
0.00012538819
0.00012478353
0.00012428459
0.0001239598
0.00012385497
0.00012400341
0.00012441472
0.00012500065
0.00012719339
0.00013130156
0.00013630187
0.00012328871
0.00012619245
0.00012491594
0.00012426034
0.00012374482
0.00012341001
0.00012332834
0.00012354327
0.0001240783
0.00012487451
0.00012625763
0.00012845674
0.00012931083
0.00012188251
0.00012474058
0.00012361404
0.00012298779
0.00012262198
0.00012254327
0.00012279355
0.00012343498
0.00012444994
0.00012588874
0.00012873423
0.00013258923
0.00013671878
0.00012109303
0.00012331734
0.00012205851
0.00012152986
0.00012144366
0.00012169617
0.00012237075
0.00012348815
0.00012500511
0.00012710386
0.00012991233
0.00013114266
0.00012026164
0.00012130345
0.00012009491
0.00011995292
0.00012022116
0.00012091843
0.00012212973
0.00012383486
0.00012605873
0.00012953519
0.00013341247
0.00013825122
0.00011785504
0.0001185585
0.0001179367
0.0001182434
0.00011900106
0.00012025835
0.00012206861
0.00012439318
0.00012739675
0.00013134043
0.00013468782
0.00011390485
0.00011550743
0.00011559953
0.00011652285
0.00011787931
0.00011979345
0.00012228011
0.00012544699
0.00012975416
0.00013378392
0.00014062211
0.00011148576
0.00011279001
0.0001135114
0.00011493821
0.00011692469
0.00011945735
0.00012254243
0.00012612467
0.00013026649
0.00013800672
0.00010853841
0.00010997393
0.00011138998
0.00011351241
0.00011613311
0.00011925678
0.00012284066
0.00012672572
0.00013055118
0.00013473894
0.0001053091
0.00010712877
0.00010960588
0.00011240022
0.00011558089
0.00011925811
0.0001229199
0.00012669729
0.0001292669
0.00013335243
0.00010086435
0.00010448946
0.0001080229
0.00011155691
0.00011550741
0.0001190823
0.00012246753
0.00012557508
0.00012704917
0.00013219468
9.7878866e-05
0.00010256791
0.00010737002
0.0001119277
0.00011547177
0.00011844951
0.00012091946
0.0001227618
0.00012269656
0.00012378974
0.00010372632
0.00010372642
0.00010906348
0.0001125733
0.00011533221
0.00011764501
0.00011936727
0.00012054815
0.00011896102
0.00012422585
9.5551948e-05
0.00010052085
0.00010619097
0.00011033793
0.00011284752
0.00011507913
0.00011664078
0.00011760983
0.00011754686
0.00011648618
0.00012306128
9.8399658e-05
0.00010315538
0.00010788493
0.00011078077
0.00011311756
0.00011460767
0.0001153712
0.00011532221
0.00011475758
0.00011272802
0.00011614261
0.0001093564
0.00010565017
0.00010959642
0.00011206199
0.00011333678
0.00011405768
0.00011405498
0.00011358194
0.00011254611
0.00010925178
0.00011738288
9.8335152e-05
0.00010281243
0.00010836332
0.00011178676
0.00011275547
0.00011332947
0.00011331351
0.00011274676
0.00011174324
0.00010971107
0.00010756369
0.00011769442
0.00010967591
0.00010781649
0.00011118727
0.00011272585
0.00011315572
0.00011305261
0.00011235695
0.0001111172
0.00010918646
0.00010716743
0.00010320992
9.8289831e-05
0.00010202413
9.4009941e-05
0.0001032114
0.00010995868
0.00011338196
0.00011361356
0.00011332587
0.00011252477
0.00011120135
0.0001093695
0.00010737114
0.00010392455
0.00010331193
9.7752416e-05
0.00010390418
0.00011424877
0.00011230613
0.00011478426
0.00011501735
0.00011424
0.0001132165
0.00011171212
0.00010978708
0.00010754895
0.00010445337
0.00010107756
9.894879e-05
9.5440408e-05
9.8622637e-05
9.9094976e-05
9.9343038e-05
0.00010891337
0.00011553842
0.00011709111
0.00011561956
0.00011431285
0.0001126659
0.00011067834
0.00010840676
0.00010569674
0.00010265051
9.9553613e-05
9.6577784e-05
9.7663962e-05
9.2450894e-05
0.0001007812
0.00012144097
0.00011978178
0.00011972694
0.00011751338
0.00011579177
0.00011396674
0.00011188435
0.00010959404
0.00010704526
0.00010431108
0.00010146609
9.8557464e-05
9.5740663e-05
9.4210812e-05
9.152608e-05
9.8317835e-05
9.6891619e-05
5.3047961e-06
-6.5867441e-09
-3.5830637e-07
0.00012376245
0.0001196143
0.00012075074
0.00011902894
0.00011727961
0.00011540946
0.00011328909
0.00011097703
0.00010848929
0.0001058593
0.00010317752
0.00010053105
9.7703506e-05
9.4905404e-05
9.224084e-05
9.2794669e-05
8.6342978e-05
9.0360322e-05
9.3267538e-05
9.0610273e-05
5.6960815e-06
-4.8395115e-07
6.5791578e-06
1.3034823e-06
4.7942173e-07
0.00012051556
0.00012083064
0.00012258342
0.00012110196
0.00011906369
0.00011708303
0.00011488729
0.00011252833
0.00011004591
0.00010745906
0.00010482244
0.00010221297
9.9506659e-05
9.6751123e-05
9.3954381e-05
9.1027078e-05
8.8323609e-05
8.8478771e-05
8.9411528e-05
8.1387658e-05
8.7681841e-05
8.7899851e-05
8.9549855e-05
8.6229029e-05
1.8675399e-05
1.3356098e-05
9.5777122e-06
6.3746304e-06
9.8052642e-06
4.3714176e-06
6.1232179e-06
3.3832699e-06
9.9278737e-07
9.6531892e-05
0.00011417773
0.00012192561
0.0001231728
0.00012096078
0.00011890185
0.00011662929
0.0001142042
0.00011168897
0.00010910361
0.00010647968
0.00010386288
0.00010119095
9.8550057e-05
9.5946203e-05
9.3216983e-05
9.0353557e-05
8.8389632e-05
8.6352494e-05
8.369971e-05
8.4455053e-05
8.4074164e-05
8.3951548e-05
7.7059234e-05
8.2020961e-05
8.0907799e-05
7.9635888e-05
7.8676047e-05
7.8541401e-05
7.9664216e-05
8.4120253e-05
2.9851745e-05
2.7541527e-05
2.595819e-05
2.3099402e-05
1.9370871e-05
2.0693909e-05
1.502769e-05
1.2231048e-05
1.0514962e-05
9.9456387e-06
6.9353929e-06
5.5264214e-06
3.125352e-06
8.3273045e-07
0.00012721844
0.00012856737
0.00012721501
0.00012372305
0.00012112341
0.00011857771
0.00011600293
0.00011340801
0.00011078295
0.00010813884
0.00010549875
0.00010283538
0.0001002015
9.7605115e-05
9.5009472e-05
9.2459333e-05
9.0317034e-05
8.8144288e-05
8.559445e-05
8.4306762e-05
8.2770427e-05
8.0709819e-05
7.8956742e-05
7.9013586e-05
7.7730813e-05
7.6245646e-05
7.5024219e-05
7.4352209e-05
7.3125569e-05
7.0745947e-05
6.6808338e-05
6.2631749e-05
5.9334819e-05
5.5750144e-05
5.1728146e-05
4.8409896e-05
4.4543618e-05
3.8937028e-05
3.5178632e-05
3.0261804e-05
2.745229e-05
2.46169e-05
2.2260105e-05
2.0708516e-05
1.7122432e-05
1.4076248e-05
1.1729625e-05
9.762689e-06
7.273598e-06
5.3823612e-06
3.0666542e-06
7.0931019e-07
0.00013136974
0.00013180784
0.00012995746
0.00012607989
0.00012322562
0.00012051045
0.00011782335
0.00011515392
0.0001124783
0.00010979581
0.00010711755
0.00010443578
0.00010177755
9.9146951e-05
9.6535722e-05
9.4012323e-05
9.1688689e-05
8.9436221e-05
8.710991e-05
8.536624e-05
8.3574446e-05
8.1561436e-05
7.947834e-05
7.8055928e-05
7.6410219e-05
7.468623e-05
7.3047955e-05
7.1434805e-05
6.9038507e-05
6.8312189e-05
6.4416184e-05
6.099492e-05
5.7574051e-05
5.4111012e-05
5.0492095e-05
4.713157e-05
4.3511678e-05
3.9639585e-05
3.5507352e-05
3.1981679e-05
2.8649859e-05
2.5672112e-05
2.2960971e-05
2.0527128e-05
1.7598933e-05
1.4847526e-05
1.2391223e-05
1.0131484e-05
7.697381e-06
5.5043311e-06
3.0912839e-06
5.9480476e-07
0.00013112032
0.00013318881
0.00013188423
0.00012807093
0.00012517366
0.00012238858
0.00011963293
0.00011690448
0.00011417856
0.00011145022
0.00010872487
0.00010600211
0.00010329759
0.00010061797
9.7965156e-05
9.5379263e-05
9.2902597e-05
9.0501807e-05
8.8142532e-05
8.6048579e-05
8.3983871e-05
8.1888392e-05
7.9767613e-05
7.7980694e-05
7.6104906e-05
7.4178195e-05
7.2256888e-05
7.0282296e-05
6.7923431e-05
6.5824931e-05
6.2481762e-05
5.9262482e-05
5.5988576e-05
5.2716653e-05
4.9391423e-05
4.6083236e-05
4.26384e-05
3.9094582e-05
3.550077e-05
3.231817e-05
2.9216573e-05
2.6325711e-05
2.356911e-05
2.0970508e-05
1.8203872e-05
1.5532431e-05
1.2994167e-05
1.0546586e-05
8.0562382e-06
5.6627482e-06
3.1202993e-06
4.8042696e-07
0.00013175574
0.00013467178
0.000133697
0.00012995019
0.00012705326
0.00012423394
0.00012143145
0.0001186542
0.00011587981
0.0001131024
0.00011032431
0.00010754715
0.00010478101
0.00010203375
9.9312191e-05
9.6638898e-05
9.4035652e-05
9.1494781e-05
8.9011148e-05
8.666256e-05
8.4360486e-05
8.2077869e-05
7.9825289e-05
7.7715158e-05
7.5581446e-05
7.3428298e-05
7.1264468e-05
6.9045365e-05
6.664464e-05
6.4183736e-05
6.1212166e-05
5.8169993e-05
5.5057324e-05
5.1915776e-05
4.8739288e-05
4.5553027e-05
4.2305065e-05
3.9009202e-05
3.5745151e-05
3.2664474e-05
2.9692376e-05
2.686272e-05
2.4121245e-05
2.1463941e-05
1.8762044e-05
1.6108201e-05
1.3510816e-05
1.094121e-05
8.3809104e-06
5.8475827e-06
3.1678323e-06
3.790742e-07
0.00013292422
0.00013626497
0.00013548571
0.00013178748
0.00012889872
0.00012605952
0.00012322264
0.00012040377
0.00011758344
0.0001147553
0.00011192039
0.00010908072
0.00010624298
0.00010341467
0.00010060336
9.7824534e-05
9.5092607e-05
9.2409079e-05
8.9778624e-05
8.7228264e-05
8.4722732e-05
8.2244516e-05
7.9804242e-05
7.7436344e-05
7.5076351e-05
7.2716536e-05
7.0348587e-05
6.7940228e-05
6.5429214e-05
6.2838145e-05
5.998868e-05
5.7061742e-05
5.4078154e-05
5.1065053e-05
4.8031909e-05
4.4990867e-05
4.1927573e-05
3.8853995e-05
3.5817236e-05
3.2881638e-05
3.0023465e-05
2.7284972e-05
2.4595847e-05
2.1942169e-05
1.9277678e-05
1.6630941e-05
1.3992503e-05
1.1321851e-05
8.7086159e-06
6.0587847e-06
3.2313139e-06
2.9348303e-07
0.00013461511
0.00013809493
0.00013733776
0.00013363593
0.00013073889
0.00012788006
0.0001250142
0.00012215822
0.00011929378
0.00011641443
0.00011351971
0.00011061181
0.00010769469
0.000104776
0.00010186172
9.8965228e-05
9.6097662e-05
9.3263169e-05
9.0476094e-05
8.7741604e-05
8.5043139e-05
8.2366579e-05
7.973074e-05
7.7145727e-05
7.4584847e-05
7.2040193e-05
6.9499878e-05
6.6946245e-05
6.4340005e-05
6.1671547e-05
5.8865318e-05
5.6027117e-05
5.3153028e-05
5.0255592e-05
4.735461e-05
4.445576e-05
4.1557421e-05
3.866777e-05
3.5810934e-05
3.3010931e-05
3.0243365e-05
2.7636977e-05
2.5036095e-05
2.2421745e-05
1.9791959e-05
1.7156749e-05
1.448777e-05
1.1697223e-05
9.0810842e-06
6.3201432e-06
3.3163199e-06
2.3096256e-07
0.00013700257
0.00014023835
0.00013927518
0.0001355089
0.00013258369
0.00012970376
0.00012681302
0.0001239246
0.0001210187
0.00011808799
0.00011513165
0.00011215056
0.00010914736
0.00010613077
0.00010310192
0.00010007723
9.7066688e-05
9.4071998e-05
9.1124931e-05
8.8215198e-05
8.5329464e-05
8.2445424e-05
7.9609727e-05
7.6824624e-05
7.4076806e-05
7.1363216e-05
6.8671195e-05
6.5999758e-05
6.3318151e-05
6.0597547e-05
5.7789224e-05
5.5029352e-05
5.2255321e-05
4.9461035e-05
4.6686093e-05
4.392785e-05
4.1186207e-05
3.8462186e-05
3.576473e-05
3.3086756e-05
3.0367047e-05
2.7963459e-05
2.5489208e-05
2.2929625e-05
2.0339684e-05
1.7731683e-05
1.503331e-05
1.2060152e-05
9.5456649e-06
6.6839627e-06
3.4312137e-06
2.1229944e-07
0.00013989934
0.00014245816
0.00014119484
0.00013736091
0.00013441603
0.00013152898
0.00012862484
0.00012571077
0.00012276708
0.00011978566
0.00011676591
0.00011370824
0.00011061155
0.0001074904
0.00010433544
0.00010117304
9.8010884e-05
9.4839646e-05
9.1737212e-05
8.8661938e-05
8.559335e-05
8.2478259e-05
7.9436727e-05
7.6460363e-05
7.3533709e-05
7.0663771e-05
6.7830955e-05
6.506429e-05
6.2327511e-05
5.9564456e-05
5.6704448e-05
5.4039242e-05
5.1366297e-05
4.8655408e-05
4.6004666e-05
4.3390475e-05
4.0808857e-05
3.8250059e-05
3.5717879e-05
3.3141566e-05
3.0403609e-05
2.8349855e-05
2.6037382e-05
2.3493861e-05
2.0909855e-05
1.8315726e-05
1.5443497e-05
1.1652213e-05
9.9190032e-06
7.1035794e-06
3.5308956e-06
3.0050841e-07
0.00014188834
0.00014374926
0.00014278235
0.00013909284
0.00013620731
0.00013335535
0.00013045839
0.00012752828
0.00012455144
0.00012151989
0.00011843504
0.00011529802
0.00011209996
0.00010887174
0.00010557564
0.00010226619
9.8944448e-05
9.5564116e-05
9.232341e-05
8.9101626e-05
8.5865086e-05
8.2473281e-05
7.921666e-05
7.6048326e-05
7.2938662e-05
6.9923419e-05
6.6953142e-05
6.4121843e-05
6.1371034e-05
5.8561657e-05
5.55466e-05
5.3048507e-05
5.0521348e-05
4.7846967e-05
4.5311849e-05
4.2842432e-05
4.0424422e-05
3.802012e-05
3.5628819e-05
3.2895097e-05
2.934536e-05
2.839918e-05
2.6494019e-05
2.4141039e-05
2.166318e-05
1.9434824e-05
1.7332066e-05
1.0848096e-05
1.2279063e-05
8.1118128e-06
4.0105425e-06
7.3933355e-07
0.0001448548
0.00014466182
0.00014413854
0.0001407607
0.00013799887
0.00013521334
0.00013233714
0.00012939549
0.00012638666
0.00012330389
0.00012015285
0.00011693646
0.00011362566
0.00011030008
0.00010684314
0.00010338036
9.9896704e-05
9.6237667e-05
9.2907557e-05
8.9574267e-05
8.6202704e-05
8.2340794e-05
7.8906358e-05
7.5659625e-05
7.237474e-05
6.9221394e-05
6.6068959e-05
6.31927e-05
6.044661e-05
5.7364806e-05
5.3441307e-05
5.1541639e-05
4.9321766e-05
4.6688078e-05
4.4318923e-05
4.2039172e-05
3.9855863e-05
3.7728666e-05
3.5881484e-05
3.4037306e-05
2.7515914e-05
3.0016802e-05
2.7268086e-05
2.5084782e-05
2.2715555e-05
2.0851993e-05
1.9292919e-05
1.2601993e-05
0.00012348822
0.0001406193
0.00014363453
0.00014471049
0.00014225307
0.00013979855
0.00013712712
0.00013428459
0.00013133147
0.0001282906
0.00012515439
0.00012193767
0.00011865179
0.00011520771
0.00011182206
0.000108158
0.00010454442
0.00010090949
9.6686547e-05
9.3472041e-05
9.0228359e-05
8.6745939e-05
8.1501474e-05
7.7868686e-05
7.4745e-05
7.1362894e-05
6.8108906e-05
6.461862e-05
6.1832727e-05
5.9475699e-05
5.7075572e-05
5.1977527e-05
5.228767e-05
4.8561594e-05
4.5690302e-05
4.3436798e-05
4.1319808e-05
3.9366508e-05
3.7553056e-05
3.6169872e-05
3.5037674e-05
2.8001615e-05
0.00014342469
0.00014823545
0.00014951133
0.00014715998
0.0001445405
0.00014199405
0.0001392568
0.00013637234
0.00013337062
0.00013028873
0.0001270913
0.00012381345
0.00012049006
0.00011685823
0.00011352184
0.00010946705
0.00010581918
0.00010215259
9.6323885e-05
9.376238e-05
9.0970248e-05
8.7728669e-05
8.3237658e-05
7.9327382e-05
7.3221202e-05
6.9267676e-05
6.5994615e-05
6.2353017e-05
5.989646e-05
5.8087214e-05
5.6611586e-05
5.2237437e-05
0.00015091683
0.00015198358
0.00015212512
0.00014937243
0.00014688504
0.00014429876
0.00014151266
0.000138577
0.00013550992
0.00013239952
0.00012913886
0.00012581679
0.00012251577
0.00011848192
0.00011561147
0.00011087668
0.00010729769
0.00010333373
9.7930869e-05
9.6169562e-05
8.9904727e-05
8.5717233e-05
8.1437284e-05
0.00015695987
0.00015575657
0.00015510868
0.00015206611
0.00014946981
0.0001467866
0.00014392839
0.00014091403
0.00013775087
0.00013465242
0.00013131596
0.0001279397
0.00012486435
0.00011969351
0.00011765537
0.0001138893
0.00010937263
0.00010003283
9.4205571e-05
0.00016116336
0.0001585663
0.00015790001
0.00015483992
0.00015218745
0.00014943061
0.00014650436
0.00014338598
0.00014005002
0.00013700441
0.00013335862
0.00012959585
0.00012782061
0.00012268963
0.00012053089
0.00011480541
0.00014290344
0.00015593926
0.00015905773
0.00015978464
0.00015740359
0.0001549652
0.00015221959
0.00014926315
0.00014601394
0.00014231895
0.00013968143
0.00013568693
0.00013286382
0.00012876548
0.0001201036
0.00016499201
0.00016439782
0.00016515162
0.00016315427
0.00016069119
0.00015818964
0.00015529879
0.00015225732
0.00014862744
0.00014387507
0.00014304558
0.00013891622
0.00013666082
0.00015752908
0.00016568628
0.00016716666
0.00016802149
0.00016627996
0.00016414482
0.00016171822
0.00015874
0.0001558987
0.00015190162
0.00014676845
0.00014490295
0.00013803166
0.00017267665
0.00017060416
0.00017247513
0.00017195239
0.00017030429
0.00016813819
0.00016559631
0.0001621466
0.00016007558
0.00015527335
0.00014723522
0.00016538293
0.00017327368
0.00017525445
0.00017703217
0.00017664742
0.00017497145
0.00017238821
0.00016958887
0.00016749542
0.00016265723
0.00015584486
0.00036530849
0.00038317478
0.00017451813
0.00017960484
0.00018183998
0.00018301962
0.0001837258
0.0001829955
0.00018081383
0.00017735224
0.00017469765
0.00017294485
0.00036298457
0.00036399718
0.000361324
0.0003714737
0.00036932281
0.00018543101
0.00018593563
0.00018819726
0.00019005227
0.00019102758
0.00019140755
0.00019021391
0.00018710578
0.00018255558
0.00017776523
0.00036174291
0.0003615135
0.00036177206
0.0003620819
0.00036020225
0.00036486825
0.00035883271
0.0003719307
0.00018640582
0.00019201632
0.00019467667
0.00019698672
0.00019880081
0.00019973009
0.00019992444
0.00019905584
0.00019236528
0.00018230353
0.0003616924
0.00036154326
0.0003613663
0.00036116119
0.00036099429
0.00036077401
0.0003607185
0.00036063484
0.00035960307
0.00035944299
0.00036066928
0.00036093971
0.00038168719
0.00019050844
0.00019783627
0.00020241245
0.00020454129
0.00020682686
0.00020874824
0.00021014623
0.00021189918
0.00021153226
0.00036158135
0.00036149879
0.00036139147
0.00036125863
0.00036109878
0.00036091138
0.00036070013
0.00036046643
0.00036024737
0.00035999605
0.00035979123
0.00035956146
0.00035906767
0.0003587251
0.00035853952
0.00035937421
0.00035653611
0.00036628098
0.00036366799
0.00020865756
0.00020707394
0.00021128086
0.00021301209
0.00021490149
0.00021713818
0.00021920391
0.00022140841
0.00022326618
0.00036134752
0.00036127403
0.0003611764
0.00036105424
0.00036090688
0.00036073327
0.00036053287
0.00036030577
0.00036005427
0.00035977924
0.00035950049
0.00035919514
0.00035888966
0.00035855011
0.00035812209
0.00035772289
0.00035728189
0.00035723458
0.00035512571
0.00035941476
0.00035303293
0.00036816359
0.00022437507
0.00023114884
0.00021821666
0.00021930941
0.00022138924
0.00022309943
0.00022523357
0.00022752992
0.00023005111
0.00023248233
0.00036119538
0.00036113121
0.00036104361
0.00036093209
0.00036079612
0.00036063511
0.00036044831
0.00036023505
0.00035999425
0.00035972638
0.0003594318
0.00035911122
0.00035877286
0.00035840599
0.00035801844
0.00035759146
0.0003571071
0.00035656909
0.00035599258
0.0003554485
0.00035390262
0.0003528818
0.00035361245
0.00035141359
0.00036414819
0.0003620309
0.00023748872
0.00023098698
0.00022963276
0.00023092643
0.00023015198
0.00023161641
0.00023342231
0.00023553346
0.00023802529
0.00024149991
0.00036106938
0.00036099033
0.00036088864
0.00036076363
0.00036061464
0.00036044094
0.00036024176
0.00036001628
0.00035976366
0.00035948302
0.00035917393
0.00035883624
0.0003584694
0.00035807557
0.00035764936
0.00035719034
0.00035669006
0.00035613961
0.00035552052
0.00035484976
0.00035411917
0.00035303502
0.00035197525
0.00035098126
0.00034853186
0.00035339808
0.00034683353
0.00035720177
0.00025446297
0.00026067641
0.00024605251
0.00024335389
0.00024174854
0.0002409378
0.00024098838
0.00024191945
0.0002433943
0.00024536344
0.0002501018
0.00036092418
0.00036080793
0.00036066938
0.00036050767
0.00036032192
0.00036011124
0.00035987473
0.00035961139
0.00035932023
0.00035900022
0.00035865044
0.00035827
0.00035785728
0.00035741277
0.00035693114
0.00035641017
0.00035584347
0.00035522442
0.00035453806
0.00035378566
0.00035293995
0.0003519131
0.00035083624
0.00034965473
0.00034766285
0.00034639421
0.00034656116
0.00034304882
0.00035459724
0.00035015431
0.00025939784
0.00027245569
0.00025778014
0.00025316852
0.00025461409
0.00025190268
0.00025004109
0.00025005671
0.00025125882
0.00025131168
0.00025212123
0.00025816854
0.00036093204
0.00036080038
0.00036064783
0.0003604733
0.00036027575
0.00036005414
0.00035980742
0.00035953452
0.00035923432
0.00035890564
0.00035854724
0.00035815785
0.00035773616
0.0003572799
0.00035678825
0.00035625625
0.00035568081
0.00035505561
0.000354376
0.00035362964
0.00035281308
0.00035190453
0.000350872
0.00034974434
0.00034856522
0.00034712018
0.00034569841
0.00034407794
0.00034151546
0.00034523612
0.00033809346
0.00035109223
0.0003502601
0.0002726357
0.00028386773
0.00026910583
0.00026798223
0.00026603429
0.00026049561
0.00025831214
0.00025660706
0.00025697483
0.00025958984
0.00026142488
0.00025865946
0.00026549673
0.00036101295
0.00036086475
0.00036069744
0.00036050968
0.00036030024
0.0003600679
0.00035981148
0.0003595298
0.00035922165
0.00035888576
0.0003585208
0.00035812534
0.00035769783
0.00035723656
0.00035673932
0.0003562038
0.00035562628
0.0003550029
0.00035432795
0.0003535967
0.00035279962
0.00035193188
0.00035097834
0.00034992729
0.00034877536
0.00034754431
0.0003461833
0.00034476065
0.00034310169
0.00034100288
0.00033905499
0.00033732875
0.00034333685
0.00033594538
0.00034839373
0.0003476455
0.00027261235
0.00028262593
0.0002802636
0.00027871469
0.00027523867
0.00027139008
0.00026868553
0.00026392892
0.00026156759
0.00026047323
0.00026206551
0.00026397105
0.00026951628
0.00027137113
0.00036116548
0.00036099949
0.0003608165
0.0003606149
0.00036039321
0.00036015006
0.00035988412
0.00035959409
0.00035927867
0.00035893655
0.00035856632
0.00035816652
0.00035773559
0.00035727179
0.00035677318
0.00035623744
0.00035566195
0.00035504325
0.00035437747
0.00035365961
0.00035288455
0.00035204557
0.00035113673
0.00035014909
0.00034907532
0.00034791056
0.00034666104
0.00034531481
0.00034386766
0.00034232307
0.00034065185
0.00033878085
0.00033645949
0.00033550558
0.00033380935
0.00033897393
0.00033034252
0.0003362117
0.00033655299
0.00033248821
0.00028186032
0.00028910101
0.00029072056
0.00028596427
0.00028233586
0.00028320152
0.00027969476
0.00027548694
0.00027098167
0.00026792057
0.00026499538
0.00026334039
0.00026245073
0.00026811074
0.00026811368
0.00029884302
0.0003613874
0.0003612025
0.00036100293
0.00036078679
0.00036055239
0.00036029817
0.00036002265
0.00035972442
0.0003594021
0.00035905429
0.00035867959
0.0003582765
0.00035784348
0.00035737884
0.00035688074
0.00035634713
0.00035577565
0.0003551636
0.00035450772
0.00035380433
0.00035304915
0.00035223708
0.00035136363
0.00035042194
0.00034940756
0.00034831359
0.00034713775
0.00034588042
0.00034454181
0.00034310415
0.00034158929
0.00034000112
0.00033830967
0.00033654681
0.00033490739
0.00033250302
0.00033125995
0.00032832256
0.00032992441
0.00033255012
0.00032146038
0.00033501056
0.00033319956
0.00027735608
0.00028052652
0.00028542852
0.00028666559
0.00029264404
0.0002848131
0.00028837583
0.00028730218
0.00028362125
0.00028079933
0.00027642389
0.00027262146
0.00026946248
0.00026718593
0.00026543759
0.00026453663
0.0002672514
0.00027541994
0.00024864205
0.00036187006
0.00036167541
0.00036147088
0.00036125406
0.00036102283
0.00036077527
0.00036050967
0.0003602244
0.00035991794
0.00035958883
0.00035923561
0.00035885685
0.00035845105
0.00035801668
0.00035755212
0.00035705564
0.00035652534
0.00035595914
0.00035535468
0.00035470932
0.00035402002
0.00035328338
0.00035249557
0.0003516524
0.0003507495
0.00034978181
0.00034874585
0.00034763546
0.0003464503
0.00034518754
0.0003438506
0.0003424279
0.00034093315
0.0003393671
0.00033770074
0.00033606041
0.00033438269
0.00033248798
0.0003306804
0.00032785185
0.00032618161
0.0003240338
0.00032008334
0.00032389042
0.00031606499
0.00031598784
0.00031293552
0.00031081357
0.00030734537
0.00031076075
0.0003068549
0.00027135605
0.0002713905
0.0002765471
0.0002802799
0.00029045784
0.00028299408
0.00028513292
0.00028857134
0.00029083353
0.00028708835
0.00028556291
0.0002830948
0.00027906933
0.00027597739
0.00027279607
0.00026984085
0.00026734426
0.00026549618
0.00026347845
0.0002615445
0.00026912946
0.00027808501
0.00028115953
0.00036202498
0.00036180077
0.00036156652
0.00036131993
0.00036105896
0.00036078175
0.00036048656
0.00036017178
0.00035983587
0.00035947733
0.00035909469
0.00035868646
0.00035825112
0.00035778711
0.00035729278
0.00035676637
0.00035620598
0.00035560955
0.00035497479
0.00035429916
0.00035357986
0.00035281377
0.00035199751
0.00035112746
0.00035019984
0.00034921078
0.0003481569
0.00034703376
0.00034584161
0.00034457611
0.00034323982
0.00034182857
0.00034034777
0.00033880071
0.00033716653
0.00033551562
0.00033377304
0.00033197927
0.00033011559
0.00032787537
0.00032596663
0.00032358128
0.00031989966
0.00031762457
0.00031453611
0.00031222153
0.00031074717
0.00030834338
0.00030589769
0.00030643868
0.00029778595
0.00030342117
0.00029969889
0.0002974246
0.00029602437
0.00029471089
0.00029348029
0.0002921324
0.00029093462
0.00028978439
0.0002886445
0.00028753221
0.00028644982
0.00028540148
0.00028439121
0.00028342413
0.00028249769
0.00028163766
0.00028095083
0.00027987889
0.00027923182
0.00027874366
0.00027837163
0.00027837912
0.00027822372
0.00027723681
0.00027769182
0.00027808396
0.00027827535
0.00028012748
0.00028703966
0.00027865641
0.00028062083
0.00028419673
0.000287746
0.00028652898
0.00028495068
0.00028527567
0.0002848121
0.00028173732
0.00027970637
0.00027741994
0.00027452554
0.00027189757
0.00026928382
0.00026683398
0.00026489845
0.00026344973
0.00026162144
0.00026607928
0.00027637648
0.0003028822
0.00036243025
0.00036218724
0.00036193605
0.00036167437
0.00036140009
0.00036111127
0.00036080614
0.00036048301
0.00036014028
0.00035977642
0.00035938995
0.00035897937
0.0003585432
0.0003580799
0.00035758791
0.00035706558
0.00035651116
0.00035592277
0.00035529842
0.0003546359
0.00035393282
0.00035318661
0.00035239444
0.00035155332
0.00035066012
0.00034971163
0.00034870462
0.00034763629
0.00034650333
0.00034530501
0.00034403865
0.00034270453
0.00034130161
0.00033983188
0.00033829748
0.0003366903
0.00033503863
0.00033329658
0.00033149707
0.00032958779
0.00032753117
0.00032552581
0.00032332384
0.00032059573
0.00031813742
0.00031508135
0.00031223061
0.00031004444
0.00030765891
0.00030530997
0.0003028606
0.00030001473
0.00030024766
0.00029891424
0.00029695274
0.00029552043
0.00029421083