/*--------------------------------*- C++ -*----------------------------------*\
| =========                 |                                                 |
| \\      /  F ield         | OpenFOAM: The Open Source CFD Toolbox           |
|  \\    /   O peration     | Version:  2412                                  |
|   \\  /    A nd           | Website:  www.openfoam.com                      |
|    \\/     M anipulation  |                                                 |
\*---------------------------------------------------------------------------*/
FoamFile
{
    version     2.0;
    format      ascii;
    arch        "LSB;label=32;scalar=64";
    class       surfaceScalarField;
    location    "15174";
    object      phi;
}
// * * * * * * * * * * * * * * * * * * * * * * * * * * * * * * * * * * * * * //

dimensions      [0 3 -1 0 0 0 0];

oriented        oriented;

internalField   nonuniform List<scalar> 
111957
(
2.099144e-24
-1.2878178e-24
1.2764041e-24
-2.0877304e-24
2.0699082e-24
-1.3313444e-24
1.3605802e-24
2.0278188e-24
-1.3663509e-24
1.4084403e-24
1.9929955e-24
-1.396439e-24
1.4312623e-24
1.9654495e-24
-1.4254973e-24
1.4530433e-24
1.9429478e-24
-1.4696439e-24
1.4921456e-24
1.9278118e-24
-1.5340114e-24
1.5491474e-24
1.9201475e-24
-1.6201625e-24
1.6278268e-24
1.9439842e-24
-1.7201084e-24
1.6962717e-24
2.6054858e-24
-2.33337e-24
1.6718684e-24
2.0474136e-24
2.0855627e-24
-1.2552749e-24
1.2694905e-24
-2.0997783e-24
2.0758746e-24
-1.2541423e-24
1.2638304e-24
2.0615822e-24
-1.2735253e-24
2.0336262e-24
-1.3033885e-24
2.0022251e-24
-1.3349498e-24
1.9719094e-24
-1.3661233e-24
1.9454504e-24
-1.3990383e-24
1.9126838e-24
-1.4368772e-24
1.8549235e-24
-1.4762511e-24
1.7463518e-24
-1.5115908e-24
1.5219297e-24
-1.4956862e-24
-1.2906025e-24
2.0966322e-24
-1.21309e-24
-2.138817e-24
2.0675634e-24
-1.2250735e-24
2.0413251e-24
-1.247287e-24
2.0137017e-24
-1.2757651e-24
1.9869198e-24
-1.308168e-24
1.9637925e-24
-1.342996e-24
1.9428553e-24
-1.3781011e-24
1.9092687e-24
-1.4032906e-24
1.8452489e-24
-1.4122314e-24
1.7747358e-24
-1.4410776e-24
2.3767958e-24
-2.0977463e-24
2.1390027e-24
-1.1482778e-24
1.201558e-24
-2.1922829e-24
2.0957797e-24
-1.1698671e-24
2.0621033e-24
-1.1913971e-24
2.0324984e-24
-1.217682e-24
2.0057628e-24
-1.2490294e-24
1.983528e-24
-1.2859332e-24
1.9703587e-24
-1.3298267e-24
1.9630867e-24
-1.3708291e-24
1.9377466e-24
-1.3779505e-24
1.8267653e-24
-1.3012501e-24
1.5406611e-24
-1.1549734e-24
-1.1866101e-24
2.130058e-24
-1.1058908e-24
-2.172445e-24
2.0922595e-24
-1.1320686e-24
2.0592556e-24
-1.1583932e-24
2.0288816e-24
-1.1873081e-24
2.0009938e-24
-1.2211416e-24
1.9797649e-24
-1.2647043e-24
1.9706087e-24
-1.3206705e-24
1.9795838e-24
-1.3798042e-24
2.0055521e-24
-1.4039188e-24
1.9849651e-24
-1.280663e-24
2.3028582e-24
-1.4728666e-24
2.1243267e-24
-1.0704919e-24
-2.1597256e-24
2.0903754e-24
-1.0981173e-24
2.057588e-24
-1.1256059e-24
2.0255502e-24
-1.1552702e-24
1.9951177e-24
-1.1907092e-24
1.9680736e-24
-1.2376601e-24
1.9479499e-24
-1.3005468e-24
1.9479635e-24
-1.3798179e-24
2.0185657e-24
-1.474521e-24
2.7882978e-24
-2.0503952e-24
2.1228548e-24
-1.0378523e-24
-2.1554944e-24
2.0896176e-24
-1.0648801e-24
2.055989e-24
-1.0919773e-24
2.0219452e-24
-1.1212263e-24
1.9870386e-24
-1.1558026e-24
1.9474771e-24
-1.1980986e-24
1.8928814e-24
-1.2459512e-24
1.8052941e-24
-1.2922306e-24
1.6638006e-24
-1.3330274e-24
-1.3193176e-24
2.1227136e-24
-1.0051419e-24
-2.155424e-24
2.0887602e-24
-1.0309267e-24
2.0541932e-24
-1.0574103e-24
2.0196997e-24
-1.0867328e-24
1.9844928e-24
-1.1205957e-24
1.9420169e-24
-1.1556227e-24
1.8744064e-24
-1.1783407e-24
1.7462529e-24
-1.1640772e-24
1.4883411e-24
-1.0751156e-24
-8.6286043e-25
2.1218689e-24
-9.7116827e-25
-2.1558425e-24
2.086872e-24
-9.9592972e-25
2.052074e-24
-1.0226123e-24
2.0193049e-24
-1.0539638e-24
1.9893199e-24
-1.0906107e-24
1.9584707e-24
-1.1247735e-24
1.9182723e-24
-1.1381423e-24
1.8744658e-24
-1.1202706e-24
2.4473881e-24
-1.648038e-24
2.119266e-24
-9.3589698e-25
-2.1545373e-24
2.0834484e-24
-9.6011206e-25
2.0490343e-24
-9.8819829e-25
2.0193305e-24
-1.02426e-24
1.9971852e-24
-1.0684654e-24
1.9812823e-24
-1.1088706e-24
1.957252e-24
-1.1141121e-24
1.8529581e-24
-1.0159767e-24
-7.7158889e-25
2.1143675e-24
-8.9938073e-25
-2.1508838e-24
2.0775689e-24
-9.2331345e-25
2.042488e-24
-9.5311742e-25
2.0116422e-24
-9.9341413e-25
1.9868797e-24
-1.0437029e-24
1.9724288e-24
-1.0944198e-24
1.9945124e-24
-1.1361956e-24
2.6143792e-24
-1.6358436e-24
2.1070636e-24
-8.619258e-25
-2.1445185e-24
2.0695909e-24
-8.8584079e-25
2.0336657e-24
-9.1719222e-25
1.9998445e-24
-9.5959291e-25
1.9631603e-24
-1.0070187e-24
1.9079687e-24
-1.0392282e-24
1.8095499e-24
-1.0377767e-24
-1.0016317e-24
2.0970805e-24
-8.2367127e-25
-2.135335e-24
2.0588928e-24
-8.4765314e-25
2.0223326e-24
-8.8063196e-25
1.9879859e-24
-9.2524626e-25
1.9513947e-24
-9.7042752e-25
1.8910687e-24
-9.789021e-25
1.7240132e-24
-8.7072133e-25
-6.1255813e-25
2.0839547e-24
-7.8464368e-25
-2.1229823e-24
2.0447137e-24
-8.0841209e-25
2.0064473e-24
-8.4236558e-25
1.9711699e-24
-8.8996891e-25
1.9459106e-24
-9.4516825e-25
1.9569537e-24
-9.8994509e-25
2.525262e-24
-1.4390298e-24
2.0666674e-24
-7.4417719e-25
-2.1071339e-24
2.0240863e-24
-7.6583105e-25
1.9777362e-24
-7.9601547e-25
1.92504e-24
-8.3727266e-25
1.8632188e-24
-8.8334707e-25
1.787262e-24
-9.1398829e-25
-8.6231446e-25
2.0457009e-24
-7.0221278e-25
-2.0876653e-24
1.9995426e-24
-7.1967281e-25
1.9450529e-24
-7.4152577e-25
1.8763333e-24
-7.6855298e-25
1.7880823e-24
-7.9509616e-25
1.6803997e-24
-8.0630571e-25
-7.5949393e-25
2.0218817e-24
-6.5930577e-25
-2.0647887e-24
1.9740475e-24
-6.7183853e-25
1.9163532e-24
-6.838315e-25
1.8424629e-24
-6.9466273e-25
1.7497218e-24
-7.0235507e-25
1.648257e-24
-7.0484089e-25
-6.8470786e-25
1.9953041e-24
-6.1627751e-25
-2.0383324e-24
1.9480098e-24
-6.2454415e-25
1.8922782e-24
-6.2809994e-25
1.8222611e-24
-6.2464563e-25
1.7345717e-24
-6.1466566e-25
1.6367243e-24
-6.0699356e-25
-6.1059706e-25
1.9659008e-24
-5.7369156e-25
-2.0084867e-24
1.9211617e-24
-5.7980508e-25
1.8721156e-24
-5.790538e-25
1.8146088e-24
-5.6713891e-25
1.7424093e-24
-5.4246617e-25
1.6499624e-24
-5.1454667e-25
-5.1101609e-25
1.9334194e-24
-5.3185422e-25
-1.9752567e-24
1.8923491e-24
-5.387348e-25
1.8533574e-24
-5.4006208e-25
1.8168319e-24
-5.3061339e-25
1.7813296e-24
-5.0696395e-25
1.7473964e-24
-4.8061353e-25
-4.9265346e-25
1.8971587e-24
-4.9039183e-25
-1.9386211e-24
1.8586367e-24
-5.0021278e-25
1.8273741e-24
-5.0879949e-25
1.8081909e-24
-5.1143016e-25
1.7991592e-24
-4.9793237e-25
1.7678585e-24
-4.4931289e-25
-3.6928561e-25
1.8559213e-24
-4.4774377e-25
-1.8985694e-24
1.8151202e-24
-4.5941168e-25
1.7799451e-24
-4.7362433e-25
1.7557862e-24
-4.8727129e-25
1.7467093e-24
-4.8885542e-25
2.0969528e-24
-7.9955657e-25
1.810948e-24
-4.0316136e-25
-1.8555304e-24
1.765651e-24
-4.1411467e-25
1.7209941e-24
-4.2896741e-25
1.6800537e-24
-4.4633092e-25
1.6483954e-24
-4.5719717e-25
-4.2440776e-25
1.76332e-24
-3.5638945e-25
-1.8100919e-24
1.7124579e-24
-3.6325259e-25
1.6546194e-24
-3.7112881e-25
1.5845272e-24
-3.7623877e-25
1.4952692e-24
-3.6793916e-25
-1.3415306e-25
1.7158954e-24
-3.0914073e-25
-1.7631441e-24
1.6640978e-24
-3.1145502e-25
1.605409e-24
-3.1243999e-25
1.5377304e-24
-3.0856015e-25
1.4626533e-24
-2.9286205e-25
1.5880014e-24
-2.5950122e-25
-2.1812685e-25
1.6684944e-24
-2.6271002e-25
-1.7149251e-24
1.6189625e-24
-2.619231e-25
1.5654644e-24
-2.5894192e-25
1.5085171e-24
-2.516129e-25
1.4527864e-24
-2.371313e-25
1.411197e-24
-2.1791195e-25
-1.9967542e-25
1.7086334e-24
-2.1868004e-25
2.6074781e-25
-1.7507011e-24
1.6650179e-24
-2.1859223e-25
2.6220767e-25
1.6196229e-24
-2.1731506e-25
1.5723675e-24
-2.1466768e-25
1.5235122e-24
-2.1008661e-25
1.4747413e-24
-2.0284197e-25
1.4302501e-24
-1.9264011e-25
1.393879e-24
-1.8154092e-25
-1.6590608e-25
1.656552e-24
-1.7631888e-25
-1.6989131e-24
1.6131671e-24
-1.7520732e-25
1.5684479e-24
-1.7259585e-25
1.5224409e-24
-1.6866071e-25
1.4754215e-24
-1.6306721e-25
1.4284589e-24
-1.5587938e-25
1.3836764e-24
-1.4785761e-25
1.3431147e-24
-1.4097928e-25
-1.3034715e-25
1.603048e-24
-1.3321192e-25
-1.646155e-24
1.5594445e-24
-1.3160382e-25
1.5148906e-24
-1.2804194e-25
1.4690637e-24
-1.2283386e-25
1.4218017e-24
-1.1580517e-25
1.3731461e-24
-1.0722379e-25
1.3237378e-24
-9.8449306e-26
1.2751289e-24
-9.2370417e-26
-8.6752167e-26
1.6397592e-24
-8.4817487e-26
1.3269705e-25
-1.6876388e-24
1.59305e-24
-8.7010452e-26
1.3371963e-25
1.5487047e-24
-8.8866591e-26
1.5041119e-24
-8.7011051e-26
1.4593722e-24
-8.3302205e-26
1.4133518e-24
-7.6813518e-26
1.3654464e-24
-6.7899756e-26
1.3149765e-24
-5.6753846e-26
1.2616647e-24
-4.5137559e-26
1.2073512e-24
-3.8056874e-26
-4.2141456e-26
1.6984477e-24
-7.7916319e-26
1.0663875e-25
-1.7271701e-24
1.6454456e-24
-3.5955953e-26
8.8958027e-26
1.5903764e-24
-2.9748316e-26
1.5393047e-24
-3.5938706e-26
1.4923133e-24
-4.1875232e-26
1.4471564e-24
-4.1854126e-26
1.4022295e-24
-3.8375287e-26
1.3562841e-24
-3.0868117e-26
1.3085898e-24
-2.0205482e-26
1.2583248e-24
-6.4888176e-27
1.2041021e-24
9.0850894e-27
1.1416865e-24
2.4358737e-26
2.2068227e-25
1.774811e-24
-3.1511478e-25
1.5838376e-24
6.9144313e-26
1.2182917e-25
1.7367882e-24
-3.3862766e-25
1.8567702e-25
1.664825e-24
-5.9531197e-27
1.5949717e-24
3.3897317e-26
1.5340297e-24
3.1193731e-26
1.4809207e-24
1.7170297e-26
1.4330554e-24
5.9900632e-27
1.388453e-24
2.7482484e-27
1.3436574e-24
6.4203322e-27
1.2981185e-24
1.4670817e-26
1.2513543e-24
2.6558697e-26
1.2037681e-24
4.1097375e-26
1.1571407e-24
5.5712532e-26
1.1171295e-24
6.4369945e-26
1.2837825e-24
5.4029277e-26
1.1046232e-26
1.5435394e-24
1.9697496e-24
1.5878516e-24
3.7594499e-25
1.5140025e-24
1.0774636e-25
1.4595409e-24
8.5655338e-26
1.412541e-24
6.4170252e-26
1.3685823e-24
4.9948718e-26
1.3259331e-24
4.5397431e-26
1.2831024e-24
4.9251021e-26
1.2387886e-24
5.8984643e-26
1.1928517e-24
7.2495631e-26
1.1454819e-24
8.8467199e-26
1.0958206e-24
1.0537374e-25
1.0399369e-24
1.2025368e-25
9.6301635e-25
1.309498e-25
1.3337974e-25
1.6580086e-24
1.3944585e-24
3.7129661e-25
1.3689079e-24
1.1120597e-25
1.3359295e-24
9.7148583e-26
1.2989117e-24
8.6966556e-26
1.2600285e-24
8.4280658e-26
1.2197325e-24
8.9546987e-26
1.1779567e-24
1.0076046e-25
1.1335875e-24
1.1686484e-25
1.0872241e-24
1.3483053e-25
1.0385382e-24
1.5405971e-25
9.8596934e-25
1.7282249e-25
9.2805834e-25
1.888608e-25
3.760215e-25
1.5352009e-24
1.2812655e-24
3.6514151e-25
1.2586336e-24
1.1978048e-25
1.2264515e-24
1.1914863e-25
1.1907545e-24
1.1997763e-25
1.1537012e-24
1.2660028e-25
1.1148914e-24
1.395703e-25
1.0740994e-24
1.5765689e-25
1.0302874e-24
1.7864253e-25
9.8509365e-25
1.9925342e-25
9.4033106e-25
2.1758508e-25
9.0006567e-25
2.2912619e-25
1.0518529e-24
2.242343e-25
1.8515792e-25
1.4523676e-24
1.1892898e-24
3.8285837e-25
1.1571059e-24
1.5133248e-25
1.1211244e-24
1.5595916e-25
1.0858709e-24
1.6185371e-25
1.0503647e-24
1.7507655e-25
1.0137098e-24
1.9431179e-25
9.7424515e-25
2.1810715e-25
9.3195477e-25
2.4154382e-25
8.8822604e-25
2.613138e-25
8.4079585e-25
2.7655636e-25
7.7585039e-25
2.8917974e-25
4.8302753e-25
1.3664255e-24
1.0946865e-24
4.230716e-25
1.0555394e-24
1.9510617e-25
1.0196561e-24
1.9773704e-25
9.8661931e-25
2.0811334e-25
9.5285707e-25
2.2807404e-25
9.1855338e-25
2.5241084e-25
8.8094045e-25
2.7915675e-25
8.4153959e-25
3.0071467e-25
8.0233013e-25
3.1576581e-25
7.6916942e-25
3.2234044e-25
9.4021869e-25
3.1197829e-25
2.6462592e-25
1.2676544e-24
9.9675709e-25
4.6600352e-25
9.5998863e-25
2.345055e-25
9.2760077e-25
2.405012e-25
8.9661389e-25
2.5906093e-25
8.6423411e-25
2.8479062e-25
8.322287e-25
3.1116216e-25
7.964009e-25
3.3654247e-25
7.5845998e-25
3.5370673e-25
7.1665301e-25
3.641474e-25
6.5760931e-25
3.7102198e-25
5.5923976e-25
1.1703941e-24
9.1010112e-25
4.9479849e-25
8.7873271e-25
2.7186961e-25
8.480626e-25
2.8973104e-25
8.1799025e-25
3.1486297e-25
7.8768473e-25
3.4146768e-25
7.572153e-25
3.670119e-25
7.2353477e-25
3.8738726e-25
6.8756415e-25
4.0011801e-25
6.5384923e-25
4.0473691e-25
8.1828226e-25
3.9480678e-25
3.5858633e-25
1.0961459e-24
8.4234415e-25
5.2567138e-25
8.1080929e-25
3.212659e-25
7.8061032e-25
3.4506194e-25
7.5262067e-25
3.6945734e-25
7.2658942e-25
3.9304316e-25
6.9792957e-25
4.1604711e-25
6.6400024e-25
4.3404733e-25
6.1942818e-25
4.4930897e-25
5.4795281e-25
4.6628215e-25
6.5122608e-25
1.0381198e-24
7.8297984e-25
5.764059e-25
7.5308008e-25
3.749617e-25
7.2826441e-25
3.94273e-25
7.0799289e-25
4.1331469e-25
6.8791033e-25
4.3612968e-25
6.6486727e-25
4.5709039e-25
6.4363882e-25
4.7053742e-25
6.357475e-25
4.7417347e-25
8.3793088e-25
4.4904273e-25
3.7353786e-25
9.710897e-25
7.3113555e-25
6.1491588e-25
7.1202307e-25
4.1338549e-25
7.0209195e-25
4.232458e-25
6.946546e-25
4.4356703e-25
6.7988363e-25
4.7186137e-25
6.6517117e-25
4.8524988e-25
6.4417291e-25
4.9517171e-25
5.8552671e-25
5.0768894e-25
6.9661251e-25
9.2066427e-25
6.9855794e-25
6.3549182e-25
7.0504229e-25
4.1676145e-25
7.1217801e-25
4.3643132e-25
7.1482472e-25
4.6921465e-25
7.1217126e-25
4.8790335e-25
7.2670457e-25
4.806384e-25
7.6846796e-25
4.6592555e-25
1.0418209e-24
4.2325957e-25
5.203936e-25
8.8952249e-25
7.1388538e-25
5.9239857e-25
7.3964101e-25
4.1067569e-25
7.4959633e-25
4.5925934e-25
7.6318262e-25
4.7431707e-25
7.9025255e-25
4.5356847e-25
8.4155066e-25
4.1462744e-25
9.0517495e-25
3.5963527e-25
1.1443957e-24
2.8117287e-25
4.2713674e-25
9.4057864e-25
7.7262713e-25
5.7862724e-25
7.7643505e-25
4.5545143e-25
8.0107788e-25
4.4967425e-25
8.4188151e-25
4.1276483e-25
8.9610516e-25
3.6040379e-25
9.591678e-25
2.9657262e-25
1.0142952e-24
2.2604544e-25
1.287821e-24
1.5361092e-25
3.1884442e-25
1.0000344e-24
7.8374196e-25
6.717439e-25
8.1497732e-25
4.1843888e-25
8.7903494e-25
3.487072e-25
9.4781709e-25
2.9162165e-25
1.0144537e-24
2.2993596e-25
1.0793672e-24
1.6113196e-25
1.1388243e-24
9.415379e-26
1.4237524e-24
3.3916363e-26
2.4910261e-25
6.6299748e-25
3.144536e-25
8.1054595e-25
2.7089042e-25
9.1767251e-25
2.4158065e-25
1.0043499e-24
2.0494429e-25
1.0817092e-24
1.525766e-25
1.1545328e-24
8.8308355e-26
1.2265825e-24
2.210406e-26
1.2971073e-24
-3.6608356e-26
1.6339277e-24
-8.7717843e-26
1.2596253e-25
9.6865424e-25
9.0898913e-25
3.3055555e-25
9.9870376e-25
1.5186602e-25
1.0802286e-24
1.2341945e-25
1.1630791e-24
6.9726115e-26
1.2452719e-24
6.115522e-27
1.3279376e-24
-6.0561648e-26
1.412579e-24
-1.2124971e-25
1.5007747e-24
-1.7591363e-25
1.8571382e-24
-2.304009e-25
-5.1605131e-27
1.2331847e-24
1.0887905e-24
2.9626021e-25
1.1665228e-24
4.5687204e-26
1.2570645e-24
-2.0815584e-26
1.3493978e-24
-8.6217778e-26
1.4402285e-24
-1.5139241e-25
1.531121e-24
-2.1214224e-25
1.6201061e-24
-2.6489871e-25
1.6987593e-24
-3.0905414e-25
2.0408977e-24
-3.4729882e-25
-6.3406838e-26
1.1313657e-24
-5.03245e-26
1.2494172e-24
-7.2364287e-26
1.3569919e-24
-1.2839033e-25
1.4601998e-24
-1.8942561e-25
1.5604478e-24
-2.5164045e-25
1.6587932e-24
-3.1048766e-25
1.753182e-24
-3.5928751e-25
1.8399568e-24
-3.9582889e-25
1.9125841e-24
-4.1992612e-25
2.2895043e-24
-4.4032701e-25
-1.5471925e-25
1.4770314e-24
1.3655009e-24
3.9166281e-26
1.4663443e-24
-2.2923374e-25
1.5749124e-24
-2.9799371e-25
1.6847405e-24
-3.6146853e-25
1.7919053e-24
-4.1765247e-25
1.8962346e-24
-4.6361685e-25
1.9964438e-24
-4.9603814e-25
2.0909738e-24
-5.1445606e-25
2.1747921e-24
-5.2414532e-25
2.5576371e-24
-5.375643e-25
-2.2275476e-25
1.4414536e-24
-3.0150539e-25
1.5671261e-24
-3.5490623e-25
1.6895578e-24
-4.2042545e-25
1.8082604e-24
-4.801711e-25
1.9245482e-24
-5.3394027e-25
2.0392041e-24
-5.7827276e-25
2.1525531e-24
-6.0938714e-25
2.2689752e-24
-6.3087814e-25
2.3921465e-24
-6.4731661e-25
2.5301666e-24
-6.7558444e-25
3.0552858e-24
-7.4787395e-25
2.5147606e-24
-1.0882141e-24
-6.22059e-25
1.7789384e-24
1.691237e-24
-2.6720484e-25
1.809984e-24
-5.3917247e-25
1.9323304e-24
-6.025175e-25
2.0537526e-24
-6.5536251e-25
2.1736318e-24
-6.9815192e-25
2.2945751e-24
-7.3033048e-25
2.4184427e-24
-7.5474567e-25
2.5483471e-24
-7.7722106e-25
2.6818928e-24
-8.0913011e-25
2.8017692e-24
-8.6775039e-25
2.6956176e-24
-9.820625e-25
2.9802011e-24
-9.0664243e-25
-3.6275372e-25
1.7902843e-24
-5.9173049e-25
1.923707e-24
-6.7259524e-25
2.0564835e-24
-7.3529396e-25
2.1819793e-24
-7.8085826e-25
2.3029898e-24
-8.1916246e-25
2.4241967e-24
-8.5153737e-25
2.5451828e-24
-8.7573183e-25
2.6680608e-24
-9.0009899e-25
2.785821e-24
-9.268903e-25
2.8801449e-24
-9.6207434e-25
2.8977995e-24
-9.9971706e-25
2.9657395e-24
-9.7458247e-25
3.5711756e-24
-9.681898e-25
2.8522368e-24
-1.2913545e-24
-6.4842606e-25
2.1197459e-24
2.0578962e-24
-6.1074553e-25
2.1910267e-24
-8.684245e-25
2.3128671e-24
-9.0269864e-25
2.4303005e-24
-9.3659583e-25
2.5455389e-24
-9.6677581e-25
2.6619952e-24
-9.921881e-25
2.7753115e-24
-1.0134153e-24
2.8833432e-24
-1.034922e-24
2.9765171e-24
-1.0552483e-24
3.0441316e-24
-1.0673315e-24
3.1286716e-24
-1.0591224e-24
3.2188399e-24
-1.0583582e-24
3.0078348e-24
-1.0803493e-24
3.2333102e-24
-8.7390147e-25
-1.2161616e-25
2.2334309e-24
-9.1493971e-25
2.3369234e-24
-9.7191696e-25
2.4446779e-24
-1.0104531e-24
2.5556213e-24
-1.0475392e-24
2.6661257e-24
-1.0772802e-24
2.774843e-24
-1.1009054e-24
2.881325e-24
-1.1198974e-24
2.9823172e-24
-1.1359141e-24
3.0753014e-24
-1.1482326e-24
3.1589177e-24
-1.1509478e-24
3.2409163e-24
-1.141121e-24
3.3041362e-24
-1.1215781e-24
3.286573e-24
-1.0627862e-24
3.3401844e-24
-9.2751281e-25
4.0731893e-24
-8.5462111e-25
3.1427288e-24
-1.1480875e-24
-2.8505795e-25
3.1836425e-24
-1.9604604e-24
3.9752614e-24
2.9469001e-26
1.1579879e-25
2.4085387e-24
-9.523258e-25
2.469089e-24
-1.0324672e-24
2.5632239e-24
-1.104588e-24
2.672053e-24
-1.1563684e-24
2.7817026e-24
-1.1869297e-24
2.8871354e-24
-1.2063382e-24
2.9879748e-24
-1.2207368e-24
3.0835415e-24
-1.2314808e-24
3.1736296e-24
-1.2383207e-24
3.2597295e-24
-1.2370477e-24
3.3434471e-24
-1.2248386e-24
3.4198493e-24
-1.1979803e-24
3.4915077e-24
-1.1344446e-24
3.6163546e-24
-1.0523597e-24
3.7775738e-24
-1.0158404e-24
3.679729e-24
-1.0502427e-24
4.3498888e-24
-9.5521772e-25
3.7079909e-24
-1.247063e-24
3.0839349e-24
-1.4781086e-24
-1.4657787e-26
3.4821678e-24
-2.2562747e-24
5.0138876e-24
-7.9387448e-25
3.8634763e-24
-8.1004905e-25
4.2825499e-24
-3.8960463e-25
-2.9227098e-25
2.4654978e-24
-9.2625276e-25
2.5338195e-24
-1.1007889e-24
2.6520985e-24
-1.222867e-24
2.7752215e-24
-1.2794915e-24
2.8904847e-24
-1.3021929e-24
2.9960092e-24
-1.3118627e-24
3.0933765e-24
-1.3181041e-24
3.1847381e-24
-1.3228424e-24
3.2708371e-24
-1.3244198e-24
3.3539639e-24
-1.3201745e-24
3.4362459e-24
-1.3071206e-24
3.519472e-24
-1.2812064e-24
3.6160895e-24
-1.2310621e-24
3.7380964e-24
-1.1743665e-24
3.8546247e-24
-1.1323687e-24
3.9077849e-24
-1.1034028e-24
4.0427949e-24
-1.0902277e-24
3.9748712e-24
-1.1791393e-24
3.6901596e-24
-1.1933969e-24
4.5593376e-24
-8.8383578e-25
3.9396859e-24
-1.1373844e-24
3.6009811e-24
-1.3559297e-24
3.0355671e-24
-9.7556546e-25
5.4091547e-25
3.1073887e-24
-2.3062623e-24
3.8119776e-24
-3.6795921e-25
4.4473031e-24
2.0946654e-25
5.5365828e-24
-3.3135418e-25
4.2420443e-24
-9.6173614e-25
4.3153022e-24
-8.6713235e-25
4.260504e-24
-7.5525081e-25
4.435504e-24
-5.6460463e-25
-4.8762923e-25
2.6079057e-24
2.5636843e-24
-1.0565674e-24
2.7298679e-24
-1.3890506e-24
2.8726207e-24
-1.4222443e-24
2.9948779e-24
-1.4244502e-24
3.1010013e-24
-1.4179861e-24
3.1960287e-24
-1.4131315e-24
3.2834625e-24
-1.4102762e-24
3.365566e-24
-1.4065232e-24
3.444071e-24
-1.3986795e-24
3.521133e-24
-1.3841827e-24
3.6002338e-24
-1.3603072e-24
3.690877e-24
-1.3217053e-24
3.7937093e-24
-1.2771988e-24
3.8933128e-24
-1.2319723e-24
3.9776574e-24
-1.1877474e-24
4.0568616e-24
-1.1694319e-24
4.0473602e-24
-1.169638e-24
3.9885384e-24
-1.1345751e-24
4.1329823e-24
-1.0282798e-24
4.081247e-24
-1.0856491e-24
3.8250459e-24
-1.0997286e-24
3.6752854e-24
-8.2580502e-25
4.6673029e-24
-4.5110196e-25
4.1292104e-24
-6.5793143e-25
4.0173045e-24
-9.8768566e-25
3.941869e-24
-1.028877e-24
3.8477151e-24
-9.4938225e-25
3.6349036e-24
-7.1197189e-25
2.990131e-24
1.1244078e-25
1.3401035e-24
3.0239667e-24
-2.4256523e-24
3.7695337e-24
-7.5582457e-25
4.1331518e-24
-6.8224758e-26
4.4333005e-24
-2.7689927e-26
5.2153747e-24
-6.0898027e-25
3.8787548e-24
-9.6964234e-25
4.1058696e-24
-5.9507401e-25
4.606092e-24
-2.9075585e-25
4.7597097e-24
-4.8497188e-25
4.5504189e-24
-7.5244532e-25
4.4619898e-24
-7.7870321e-25
4.4220766e-24
-7.1533765e-25
4.4785485e-24
-6.2107646e-25
-5.6620171e-25
2.6712557e-24
-1.455991e-24
2.8419487e-24
-1.5597437e-24
2.9828916e-24
-1.5631872e-24
3.101169e-24
-1.5427276e-24
3.2031949e-24
-1.520012e-24
3.2942162e-24
-1.5041528e-24
3.3779294e-24
-1.4939894e-24
3.4562428e-24
-1.4848366e-24
3.5303874e-24
-1.4728241e-24
3.601773e-24
-1.4555683e-24
3.6728003e-24
-1.4313345e-24
3.7490509e-24
-1.3979559e-24
3.8302378e-24
-1.3583856e-24
3.9118171e-24
-1.3135517e-24
3.9897344e-24
-1.2656646e-24
4.0505938e-24
-1.2302913e-24
4.0744406e-24
-1.1934848e-24
4.0828724e-24
-1.1430069e-24
4.1346095e-24
-1.0800169e-24
4.1063094e-24
-1.057349e-24
4.0094777e-24
-1.0028969e-24
4.0267821e-24
-8.4310934e-25
4.2562422e-24
-6.8056212e-25
4.3322761e-24
-7.3396538e-25
4.2117288e-24
-8.6713832e-25
4.063737e-24
-8.8088512e-25
3.8939832e-24
-7.7962853e-25
3.694345e-24
-5.1233362e-25
3.7614654e-24
4.5320333e-26
4.7755578e-24
3.260111e-25
4.330609e-24
1.0936679e-25
4.3267266e-24
-3.7651855e-25
4.2779316e-24
-5.1169255e-25
4.2637546e-24
-4.4371387e-25
4.3498137e-24
-3.1228061e-25
4.3894217e-24
-3.4152137e-25
4.4018491e-24
-5.2372122e-25
4.9797129e-24
-1.0169915e-24
3.7954896e-24
-1.241429e-24
3.9382383e-24
-8.9857326e-25
4.2896171e-24
-4.1960351e-25
4.595934e-24
-3.3400679e-25
4.5551692e-24
-5.6821551e-25
4.3132475e-24
-7.2772065e-25
4.3454325e-24
-6.2725896e-25
4.5628218e-24
-5.0814521e-25
4.6471844e-24
-5.6933444e-25
4.5697547e-24
-6.7501566e-25
4.4911173e-24
-7.0006577e-25
4.4482275e-24
-6.7244786e-25
4.4540141e-24
-6.2686308e-25
-5.9413336e-25
2.9265191e-24
-1.5203273e-24
3.0130497e-24
-1.6462743e-24
3.1121435e-24
-1.662281e-24
3.2101354e-24
-1.6407195e-24
3.3016756e-24
-1.6115522e-24
3.3866776e-24
-1.5891548e-24
3.4662883e-24
-1.5736e-24
3.5412204e-24
-1.5597688e-24
3.6118995e-24
-1.5435032e-24
3.6788213e-24
-1.5224901e-24
3.743244e-24
-1.4957572e-24
3.8076214e-24
-1.4623333e-24
3.8723493e-24
-1.4231136e-24
3.9367141e-24
-1.3779164e-24
3.9993986e-24
-1.3283491e-24
4.0502115e-24
-1.2811043e-24
4.0858925e-24
-1.2291658e-24
4.1139492e-24
-1.1710636e-24
4.1442406e-24
-1.1103083e-24
4.1436592e-24
-1.0567676e-24
4.1272208e-24
-9.8645847e-25
4.1661149e-24
-8.8200342e-25
4.2734211e-24
-7.8786836e-25
4.3121453e-24
-7.7268958e-25
4.2397007e-24
-7.9469373e-25
4.1285125e-24
-7.6969692e-25
4.0199377e-24
-6.7105368e-25
3.9767476e-24
-4.6914358e-25
4.2018666e-24
-1.7979867e-25
4.5521805e-24
-2.4302799e-26
4.7755761e-24
-1.1402875e-25
4.7627976e-24
-3.6374006e-25
4.7086596e-24
-4.5755462e-25
4.7022209e-24
-4.3727514e-25
4.7759171e-24
-3.8597678e-25
4.846018e-24
-4.1162224e-25
4.8676637e-24
-5.4536693e-25
4.652202e-24
-8.0152989e-25
4.3311802e-24
-9.2040727e-25
4.2348368e-24
-8.022298e-25
4.3756488e-24
-5.6041556e-25
4.53316e-24
-4.9151791e-25
4.5354828e-24
-5.705383e-25
4.4463218e-24
-6.3855968e-25
4.4382674e-24
-6.1920459e-25
4.5120031e-24
-5.8188094e-25
4.5444455e-24
-6.0177676e-25
4.5097694e-24
-6.4033958e-25
4.4607211e-24
-6.5101753e-25
4.4268388e-24
-6.3856549e-25
4.4176206e-24
-6.1764494e-25
-6.0177685e-25
3.0685589e-24
-1.5940606e-24
3.1423635e-24
-1.7200788e-24
3.223692e-24
-1.7436095e-24
3.3082155e-24
-1.725243e-24
3.3913282e-24
-1.6946648e-24
3.4711745e-24
-1.6690011e-24
3.5471991e-24
-1.6496247e-24
3.6193036e-24
-1.6318733e-24
3.6872334e-24
-1.611433e-24
3.7511444e-24
-1.5864011e-24
3.8113173e-24
-1.5559302e-24
3.8686533e-24
-1.5196693e-24
3.9234033e-24
-1.4778635e-24
3.9761835e-24
-1.4306966e-24
4.0265901e-24
-1.3787557e-24
4.069845e-24
-1.3243592e-24
4.106164e-24
-1.2654848e-24
4.1376128e-24
-1.2025124e-24
4.1649645e-24
-1.1376601e-24
4.1804268e-24
-1.0722299e-24
4.1934111e-24
-9.9944275e-25
4.22802e-24
-9.1661233e-25
4.2809685e-24
-8.4081685e-25
4.3018392e-24
-7.935603e-25
4.2694052e-24
-7.6225971e-25
4.2138435e-24
-7.1413522e-25
4.174216e-24
-6.3142615e-25
4.2072824e-24
-5.0220996e-25
4.3830911e-24
-3.5560742e-25
4.6255313e-24
-2.6674294e-25
4.8005437e-24
-2.8904118e-25
4.8297868e-24
-3.9298317e-25
4.8146254e-24
-4.4239316e-25
4.8190306e-24
-4.4168032e-25
4.8616991e-24
-4.2864536e-25
4.9024776e-24
-4.5240074e-25
4.8894359e-24
-5.3232522e-25
4.7424642e-24
-6.5455817e-25
4.5370947e-24
-7.1503781e-25
4.4148298e-24
-6.7996484e-25
4.4365429e-24
-5.8212867e-25
4.4927626e-24
-5.477377e-25
4.4962959e-24
-5.7407156e-25
4.4614558e-24
-6.0371954e-25
4.4480257e-24
-6.0577447e-25
4.4662245e-24
-6.0007977e-25
4.4745717e-24
-6.1012396e-25
4.4592537e-24
-6.2502157e-25
4.4339643e-24
-6.2572817e-25
4.4105146e-24
-6.1511578e-25
4.3961805e-24
-6.0331087e-25
-5.9842965e-25
3.1677926e-24
-1.6702641e-24
3.2396417e-24
-1.791928e-24
3.3144494e-24
-1.8184172e-24
3.3922038e-24
-1.8029975e-24
3.4702092e-24
-1.7726702e-24
3.5464388e-24
-1.7452307e-24
3.6197095e-24
-1.7228954e-24
3.6894133e-24
-1.7015771e-24
3.755295e-24
-1.6773147e-24
3.8169209e-24
-1.648027e-24
3.8744547e-24
-1.613464e-24
3.928043e-24
-1.5732576e-24
3.9779552e-24
-1.5277757e-24
4.0243858e-24
-1.4771272e-24
4.067434e-24
-1.421804e-24
4.1056691e-24
-1.3625942e-24
4.1395018e-24
-1.2993175e-24
4.1696948e-24
-1.2327053e-24
4.1959183e-24
-1.1638837e-24
4.2170368e-24
-1.0933483e-24
4.2375418e-24
-1.0199477e-24
4.2647129e-24
-9.4378337e-25
4.2951517e-24
-8.7125568e-25
4.310834e-24
-8.092426e-25
4.303403e-24
-7.5482875e-25
4.2862933e-24
-6.9702546e-25
4.2834283e-24
-6.2856118e-25
4.3270705e-24
-5.4585219e-25
4.4361513e-24
-4.6468815e-25
4.5790303e-24
-4.0962195e-25
4.6920882e-24
-4.0209912e-25
4.732355e-24
-4.3324989e-25
4.7395843e-24
-4.4962253e-25
4.7480177e-24
-4.5011368e-25
4.768237e-24
-4.4886463e-25
4.7813851e-24
-4.6554885e-25
4.7571614e-24
-5.0810155e-25
4.6686011e-24
-5.659979e-25
4.554142e-24
-6.0057869e-25
4.4730864e-24
-5.9890929e-25
4.4622286e-24
-5.712708e-25
4.4761992e-24
-5.6170838e-25
4.4729987e-24
-5.7087101e-25
4.4537608e-24
-5.8448161e-25
4.4391462e-24
-5.9115993e-25
4.4400304e-24
-6.0096399e-25
4.4457608e-24
-6.1585428e-25
4.4432446e-24
-6.2250541e-25
4.4300913e-24
-6.1257485e-25
4.4072661e-24
-5.9229057e-25
4.3837407e-24
-5.797855e-25
-5.8317301e-25
3.2430253e-24
-1.7435575e-24
3.3121073e-24
-1.86101e-24
3.385245e-24
-1.8915548e-24
3.4615177e-24
-1.8792702e-24
3.5378455e-24
-1.8489979e-24
3.6121299e-24
-1.8195151e-24
3.6835567e-24
-1.7943222e-24
3.7513867e-24
-1.7694071e-24
3.8152958e-24
-1.7412238e-24
3.8751737e-24
-1.7079049e-24
3.9307005e-24
-1.6689909e-24
3.9821586e-24
-1.6247157e-24
4.0294483e-24
-1.5750654e-24
4.0726759e-24
-1.5203548e-24
4.1119891e-24
-1.4611171e-24
4.1472687e-24
-1.3978738e-24
4.1788788e-24
-1.3309276e-24
4.2070253e-24
-1.2608518e-24
4.2318498e-24
-1.1887081e-24
4.2537914e-24
-1.1152899e-24
4.2749012e-24
-1.0410575e-24
4.2968304e-24
-9.6571257e-25
4.3177653e-24
-8.9219063e-25
4.3313231e-24
-8.2280041e-25
4.3350482e-24
-7.5855379e-25
4.3353753e-24
-6.9735262e-25
4.3438319e-24
-6.3701776e-25
4.3756477e-24
-5.7766799e-25
4.4360988e-24
-5.2513929e-25
4.5133775e-24
-4.8690063e-25
4.5790389e-24
-4.6776043e-25
4.6120579e-24
-4.6626887e-25
4.6231804e-24
-4.6074504e-25
4.6281801e-24
-4.5511342e-25
4.6334869e-24
-4.541714e-25
4.6320578e-24
-4.641198e-25
4.6112394e-24
-4.8728317e-25
4.5655937e-24
-5.2035214e-25
4.516012e-24
-5.5099698e-25
4.4864136e-24
-5.6931097e-25
4.4888481e-24
-5.7370531e-25
4.4963601e-24
-5.6922038e-25
4.4846912e-24
-5.5920211e-25
4.4572625e-24
-5.5705286e-25
4.4340171e-24
-5.6791454e-25
4.4282802e-24
-5.9522705e-25
4.4410668e-24
-6.286409e-25
4.4596834e-24
-6.4112199e-25
4.4579452e-24
-6.1083669e-25
4.4235322e-24
-5.5787757e-25
4.375515e-24
-5.3176831e-25
-5.4740102e-25
3.291525e-24
-1.7985995e-24
3.3573039e-24
-1.926789e-24
3.4353935e-24
-1.9696444e-24
3.5159634e-24
-1.9598402e-24
3.5939429e-24
-1.9269774e-24
3.6681047e-24
-1.8936769e-24
3.7382952e-24
-1.8645128e-24
3.8045846e-24
-1.8356965e-24
3.8668531e-24
-1.8034922e-24
3.9250998e-24
-1.7661515e-24
3.9791837e-24
-1.7230748e-24
4.0289408e-24
-1.6744728e-24
4.0745428e-24
-1.6206674e-24
4.1161401e-24
-1.5619521e-24
4.1536611e-24
-1.4986382e-24
4.1872687e-24
-1.4314814e-24
4.2173902e-24
-1.3610492e-24
4.2443098e-24
-1.2877714e-24
4.2682053e-24
-1.2126036e-24
4.2901062e-24
-1.1371908e-24
4.3117302e-24
-1.0626815e-24
4.3331603e-24
-9.8714265e-25
4.3506433e-24
-9.0967363e-25
4.3601424e-24
-8.3229957e-25
4.3629179e-24
-7.6132928e-25
4.3634662e-24
-6.9790094e-25
4.3691366e-24
-6.4268815e-25
4.3880836e-24
-5.96615e-25
4.4250089e-24
-5.6206456e-25
4.477688e-24
-5.3957968e-25
4.5292991e-24
-5.1937159e-25
4.5599936e-24
-4.9696331e-25
4.5682745e-24
-4.6902596e-25
4.5631087e-24
-4.4994766e-25
4.5513803e-24
-4.4244301e-25
4.534086e-24
-4.4682541e-25
4.510155e-24
-4.6335222e-25
4.4843414e-24
-4.9453853e-25
4.4743381e-24
-5.4099374e-25
4.4921825e-24
-5.8715532e-25
4.5287362e-24
-6.1025904e-25
4.5494601e-24
-5.8994428e-25
4.5283932e-24
-5.3813515e-25
4.479756e-24
-5.084157e-25
4.4317078e-24
-5.1986632e-25
4.4150382e-24
-5.7855752e-25
4.4484126e-24
-6.620152e-25
4.5064769e-24
-6.9918636e-25
4.5184993e-24
-6.228591e-25
4.4523495e-24
-4.9172775e-25
4.3563704e-24
-4.3578924e-25
-4.7510266e-25
3.2706934e-24
-1.8584642e-24
3.3640817e-24
-2.0201773e-24
3.4644224e-24
-2.069985e-24
3.5567916e-24
-2.0522094e-24
3.6394457e-24
-2.0096315e-24
3.7145249e-24
-1.9687561e-24
3.7840005e-24
-1.9339885e-24
3.849023e-24
-1.900719e-24
3.9099117e-24
-1.8643809e-24
3.966613e-24
-1.8228528e-24
4.0193018e-24
-1.7757637e-24
4.0679873e-24
-1.7231583e-24
4.1127011e-24
-1.6653812e-24
4.1535455e-24
-1.6027965e-24
4.1904408e-24
-1.5355334e-24
4.223775e-24
-1.4648156e-24
4.2540641e-24
-1.3913383e-24
4.2809922e-24
-1.3146995e-24
4.3045303e-24
-1.2361417e-24
4.3272432e-24
-1.1599037e-24
4.3530532e-24
-1.0884915e-24
4.3792303e-24
-1.0133197e-24
4.3963721e-24
-9.2681545e-25
4.3978239e-24
-8.3375137e-25
4.3880498e-24
-7.5155519e-25
4.3754231e-24
-6.8527419e-25
4.3682335e-24
-6.3549856e-25
4.3754843e-24
-6.0386587e-25
4.4078601e-24
-5.9444027e-25
4.4630158e-24
-5.9473543e-25
4.5271136e-24
-5.8346935e-25
4.5704193e-24