/*--------------------------------*- C++ -*----------------------------------*\
| =========                 |                                                 |
| \\      /  F ield         | OpenFOAM: The Open Source CFD Toolbox           |
|  \\    /   O peration     | Version:  2412                                  |
|   \\  /    A nd           | Website:  www.openfoam.com                      |
|    \\/     M anipulation  |                                                 |
\*---------------------------------------------------------------------------*/
FoamFile
{
    version     2.0;
    format      ascii;
    arch        "LSB;label=32;scalar=64";
    class       volVectorField;
    location    "15174";
    object      U;
}
// * * * * * * * * * * * * * * * * * * * * * * * * * * * * * * * * * * * * * //

dimensions      [0 1 -1 0 0 0 0];

internalField   nonuniform List<vector> 
57557
(
(3.0177594e-07 -1.9345603e-07 4.4603709e-28)
(2.9944745e-07 -1.9825735e-07 -2.8220096e-28)
(2.9699014e-07 -2.0267436e-07 -1.8115902e-28)
(2.9435496e-07 -2.0663598e-07 -1.18732e-28)
(2.916055e-07 -2.1010376e-07 3.6095095e-28)
(2.8878726e-07 -2.1306505e-07 -6.2135056e-28)
(2.8591746e-07 -2.1548212e-07 4.310564e-28)
(2.8303635e-07 -2.1732645e-07 1.1261655e-27)
(2.8030161e-07 -2.1846886e-07 5.2540366e-28)
(2.7740175e-07 -2.1844401e-07 -4.8469333e-27)
(2.753588e-07 -2.1643699e-07 1.3844222e-26)
(3.0884729e-07 -1.8053231e-07 -5.4472758e-28)
(3.0629229e-07 -1.8584835e-07 -1.4102679e-28)
(3.0351585e-07 -1.9088081e-07 -3.2331175e-30)
(3.005245e-07 -1.9551226e-07 -4.4984817e-29)
(2.9736066e-07 -1.9976151e-07 -5.6824384e-29)
(2.9402169e-07 -2.0359266e-07 7.0529869e-29)
(2.9054313e-07 -2.0698154e-07 -3.0580877e-28)
(2.8695436e-07 -2.0991509e-07 5.5730169e-28)
(2.8325642e-07 -2.123931e-07 -4.9692567e-29)
(2.7953717e-07 -2.1446994e-07 3.1719194e-29)
(2.7606166e-07 -2.1593983e-07 -1.150137e-27)
(2.7216629e-07 -2.1638897e-07 6.276986e-27)
(3.1123516e-07 -1.7777595e-07 3.9513382e-28)
(3.0809763e-07 -1.8287811e-07 1.5056284e-28)
(3.0472527e-07 -1.8767214e-07 4.6800249e-29)
(3.0112999e-07 -1.9210892e-07 -2.2228024e-29)
(2.9733649e-07 -1.9618234e-07 2.1354265e-28)
(2.9335066e-07 -1.9986653e-07 1.5810239e-28)
(2.8919261e-07 -2.0313821e-07 1.5929045e-29)
(2.8487136e-07 -2.0598305e-07 1.4139537e-28)
(2.8036406e-07 -2.08427e-07 2.4481801e-28)
(2.7598459e-07 -2.1048778e-07 -3.914616e-28)
(2.7014958e-07 -2.1160641e-07 1.0116762e-26)
(2.6626174e-07 -2.1225722e-07 1.8914541e-26)
(3.1638946e-07 -1.6935674e-07 -5.1569875e-28)
(3.130273e-07 -1.7450203e-07 7.0422285e-29)
(3.0938137e-07 -1.7935095e-07 8.0842768e-29)
(3.0548157e-07 -1.8390391e-07 -8.9299106e-29)
(3.0134423e-07 -1.881311e-07 2.1145795e-28)
(2.9698496e-07 -1.9201761e-07 -1.8557889e-28)
(2.9240788e-07 -1.955383e-07 -3.3211805e-28)
(2.8762415e-07 -1.9866452e-07 4.3599138e-28)
(2.8264269e-07 -2.0138631e-07 -5.1322754e-28)
(2.7753376e-07 -2.0377305e-07 2.9867351e-28)
(2.7287685e-07 -2.0589189e-07 -1.3010525e-27)
(2.6713317e-07 -2.0676519e-07 -7.8167671e-27)
(3.1812798e-07 -1.6592325e-07 2.4853709e-28)
(3.1432115e-07 -1.7075766e-07 5.8085737e-29)
(3.1021842e-07 -1.7533485e-07 -4.4444143e-29)
(3.058457e-07 -1.7963779e-07 7.3495028e-30)
(3.0121815e-07 -1.8364325e-07 8.3114094e-30)
(2.9634311e-07 -1.8733326e-07 -1.1345113e-28)
(2.9121502e-07 -1.9068021e-07 8.5883181e-28)
(2.8582119e-07 -1.936433e-07 -2.0518093e-28)
(2.8016284e-07 -1.9618294e-07 8.2613909e-28)
(2.7459343e-07 -1.9819413e-07 4.5068314e-29)
(2.6814757e-07 -2.0007964e-07 -4.2252463e-27)
(2.634512e-07 -2.0164915e-07 2.0568847e-26)
(3.1940618e-07 -1.6205659e-07 -9.1422785e-29)
(3.151868e-07 -1.6658294e-07 1.593877e-29)
(3.1066722e-07 -1.7087832e-07 7.445893e-30)
(3.0586586e-07 -1.7492187e-07 3.0008715e-30)
(3.0079389e-07 -1.7869449e-07 -3.7173217e-29)
(2.9545211e-07 -1.8217823e-07 -4.4563708e-28)
(2.8982407e-07 -1.8534005e-07 -2.1187985e-28)
(2.8387105e-07 -1.8812111e-07 8.4914432e-28)
(2.7764151e-07 -1.9040304e-07 -1.2583132e-27)
(2.7074705e-07 -1.9136206e-07 1.2781295e-26)
(2.6548869e-07 -1.9197533e-07 -2.9533206e-26)
(3.2026779e-07 -1.5779219e-07 1.5218601e-29)
(3.1566888e-07 -1.6201357e-07 1.1602652e-29)
(3.1076881e-07 -1.66022e-07 -1.1035741e-29)
(3.0557904e-07 -1.6979978e-07 -5.7090884e-30)
(3.0010729e-07 -1.7333485e-07 8.9766814e-29)
(2.9435829e-07 -1.7661737e-07 -8.8389371e-29)
(2.8833294e-07 -1.7963445e-07 6.4971392e-29)
(2.8204978e-07 -1.8237375e-07 4.2130323e-28)
(2.7597595e-07 -1.8466698e-07 -1.3963382e-27)
(2.6920565e-07 -1.8576641e-07 7.7367291e-27)
(3.2073679e-07 -1.5316405e-07 -1.2600958e-29)
(3.1579352e-07 -1.5708415e-07 8.9845289e-30)
(3.1054848e-07 -1.6080293e-07 1.7931426e-29)
(3.0500389e-07 -1.6430879e-07 -9.5365569e-29)
(2.9916017e-07 -1.6759791e-07 -4.9195376e-29)
(2.9301897e-07 -1.7067295e-07 -2.9386274e-29)
(2.8658722e-07 -1.7357068e-07 2.5052759e-28)
(2.7999318e-07 -1.7639698e-07 -7.5597991e-28)
(2.7380767e-07 -1.7902298e-07 3.0469734e-27)
(2.675151e-07 -1.8085678e-07 -1.5364701e-27)
(3.2082549e-07 -1.4820866e-07 2.8366862e-30)
(3.1557683e-07 -1.5183175e-07 -3.196552e-30)
(3.1002458e-07 -1.5525868e-07 -2.0369914e-29)
(3.0415871e-07 -1.5848276e-07 1.5600187e-28)
(2.9796737e-07 -1.6150237e-07 -9.2147017e-29)
(2.9143102e-07 -1.6432124e-07 4.4377939e-28)
(2.8454434e-07 -1.6699089e-07 -3.9626904e-28)
(2.777644e-07 -1.694846e-07 7.0161601e-29)
(2.6922845e-07 -1.7131864e-07 -6.5696794e-27)
(2.6370297e-07 -1.7372242e-07 2.5821849e-27)
(3.2053827e-07 -1.4296754e-07 2.4887654e-31)
(3.1502675e-07 -1.463002e-07 1.0597382e-29)
(3.0920844e-07 -1.4943757e-07 -5.0033679e-30)
(3.0305894e-07 -1.5237791e-07 4.3637793e-29)
(2.9654901e-07 -1.5512329e-07 -5.4768716e-28)
(2.8962721e-07 -1.5769663e-07 -1.5013051e-28)
(2.8238041e-07 -1.6021682e-07 1.0136047e-27)
(2.7543506e-07 -1.6260329e-07 -1.2435758e-27)
(2.6792806e-07 -1.6417967e-07 1.3995963e-26)
(3.1987109e-07 -1.3748428e-07 9.7005371e-31)
(3.1413926e-07 -1.4053357e-07 8.1169735e-30)
(3.0809384e-07 -1.4338205e-07 6.9433019e-29)
(3.0169049e-07 -1.4602911e-07 2.3922541e-28)
(2.9486248e-07 -1.484724e-07 7.8534115e-29)
(2.8748739e-07 -1.5071686e-07 -2.9899738e-28)
(2.7992617e-07 -1.5272096e-07 1.5726511e-27)
(2.7031064e-07 -1.5392403e-07 -5.0783728e-27)
(2.6413515e-07 -1.5635087e-07 -2.3544502e-27)
(3.1881592e-07 -1.3180509e-07 -2.3395367e-30)
(3.1291094e-07 -1.3458055e-07 9.4560313e-30)
(3.0668988e-07 -1.3714376e-07 -1.3191097e-28)
(3.0009414e-07 -1.394939e-07 -5.2288891e-28)
(2.9304154e-07 -1.4163726e-07 8.1115035e-28)
(2.85463e-07 -1.4362809e-07 -1.9945948e-28)
(2.7804114e-07 -1.4535139e-07 4.6246038e-28)
(2.6984076e-07 -1.4608044e-07 -1.1779151e-26)
(3.1735372e-07 -1.2597675e-07 -2.5629082e-30)
(3.1132033e-07 -1.2849318e-07 1.17808e-28)
(3.0497169e-07 -1.307811e-07 -6.5886651e-29)
(2.982294e-07 -1.3283699e-07 -2.5659535e-28)
(2.9096246e-07 -1.3469103e-07 3.7187249e-29)
(2.8317108e-07 -1.3655461e-07 -6.4259021e-28)
(2.7553356e-07 -1.3853292e-07 2.1961705e-28)
(2.682411e-07 -1.4037704e-07 1.6415787e-27)
(3.1545799e-07 -1.2004202e-07 3.5888711e-31)
(3.0933955e-07 -1.2231858e-07 6.7449516e-29)
(3.0291766e-07 -1.2434064e-07 -4.8522002e-29)
(2.9609002e-07 -1.2607848e-07 -9.7529378e-29)
(2.8863456e-07 -1.2749827e-07 3.4287151e-28)
(2.8077629e-07 -1.2864371e-07 -4.6514597e-28)
(2.7041202e-07 -1.290611e-07 -8.4010501e-27)
(2.640518e-07 -1.3177099e-07 1.1723774e-26)
(3.1309562e-07 -1.1404157e-07 -5.3982583e-30)
(3.0693619e-07 -1.1611456e-07 -5.9333231e-29)
(3.0051884e-07 -1.1791941e-07 -1.9312494e-29)
(2.9376685e-07 -1.1941155e-07 1.4485968e-29)
(2.8648883e-07 -1.2051639e-07 5.5715192e-28)
(2.7911091e-07 -1.2115047e-07 -8.4094078e-28)
(2.7066353e-07 -1.2082445e-07 2.5978568e-27)
(3.1021601e-07 -1.0799645e-07 -1.4084283e-29)
(3.0403171e-07 -1.0990909e-07 -6.5199792e-29)
(2.9764814e-07 -1.1156503e-07 3.673697e-28)
(2.9102785e-07 -1.1293075e-07 -7.7833469e-28)
(2.8401743e-07 -1.1396255e-07 1.3308545e-27)
(2.7708208e-07 -1.146154e-07 -1.9493432e-27)
(2.698879e-07 -1.146366e-07 7.0079351e-27)
(3.0677925e-07 -1.0190016e-07 3.9911593e-29)
(3.0056275e-07 -1.0368111e-07 2.0815114e-28)
(2.9420695e-07 -1.0522771e-07 -1.757583e-28)
(2.8771936e-07 -1.065184e-07 3.7656203e-28)
(2.8098684e-07 -1.0753163e-07 -1.8024957e-27)
(2.7445129e-07 -1.0821719e-07 -1.053931e-27)
(2.67883e-07 -1.082173e-07 1.2906434e-27)
(3.0276374e-07 -9.5732895e-08 -4.509744e-29)
(2.9648795e-07 -9.7394512e-08 4.2720948e-29)
(2.9012013e-07 -9.8849198e-08 -6.0495222e-28)
(2.8371378e-07 -1.0008667e-07 4.6137244e-28)
(2.772042e-07 -1.0110124e-07 -1.5342061e-27)
(2.7100667e-07 -1.0183375e-07 3.9050552e-27)
(2.6487085e-07 -1.0185153e-07 7.6910011e-28)
(2.9817046e-07 -8.9467737e-08 2.0177703e-31)
(2.9179181e-07 -9.100413e-08 4.6855427e-29)
(2.8533543e-07 -9.2361828e-08 1.1209686e-28)
(2.7888959e-07 -9.3544605e-08 -1.668503e-28)
(2.7245304e-07 -9.457438e-08 6.9537415e-28)
(2.6648705e-07 -9.5403015e-08 -2.432337e-27)
(2.6073577e-07 -9.561555e-08 -5.0320298e-27)
(2.9302681e-07 -8.307839e-08 2.681082e-31)
(2.8649503e-07 -8.4461805e-08 -8.2496738e-29)
(2.7984333e-07 -8.5682417e-08 6.8673152e-29)
(2.7314994e-07 -8.6755264e-08 2.5020767e-28)
(2.6646135e-07 -8.7743533e-08 -6.509352e-29)
(2.6035034e-07 -8.8572485e-08 -5.0107584e-28)
(2.5449513e-07 -8.8953211e-08 2.2041656e-27)
(2.8738894e-07 -7.6554798e-08 -1.4042194e-29)
(2.8067135e-07 -7.7744967e-08 -4.429544e-28)
(2.737319e-07 -7.8768745e-08 4.714219e-28)
(2.6655711e-07 -7.9653459e-08 -8.9888568e-28)
(2.5923793e-07 -8.0535564e-08 -6.9365261e-28)
(2.5236491e-07 -8.1267167e-08 6.1751486e-27)
(2.458756e-07 -8.1989572e-08 -1.0332643e-26)
(2.8132761e-07 -6.9904999e-08 1.4123242e-28)
(2.7443128e-07 -7.0853491e-08 -3.1508797e-28)
(2.6718214e-07 -7.1587505e-08 3.743221e-28)
(2.5942597e-07 -7.2057869e-08 -8.7246776e-28)
(2.5155076e-07 -7.2262499e-08 3.8003528e-27)
(2.4130969e-07 -7.1453074e-08 2.1191574e-27)
(2.3576632e-07 -7.3432398e-08 -3.5498013e-27)
(2.7492545e-07 -6.3176605e-08 -7.5657298e-29)
(2.6792985e-07 -6.3882792e-08 -8.4380805e-29)
(2.6054889e-07 -6.4358847e-08 5.5039023e-28)
(2.5262925e-07 -6.4534116e-08 7.0043664e-28)
(2.4478329e-07 -6.4348992e-08 -8.4411387e-29)
(2.3619363e-07 -6.3492291e-08 -5.1860313e-27)
(2.68194e-07 -5.6399443e-08 -5.5652074e-29)
(2.611364e-07 -5.687467e-08 -3.0826139e-29)
(2.5367062e-07 -5.7147363e-08 5.7722167e-28)
(2.456083e-07 -5.7213705e-08 -3.5454399e-28)
(2.3746361e-07 -5.7110902e-08 -3.5749449e-28)
(2.286417e-07 -5.7141168e-08 1.5449966e-27)
(2.6117783e-07 -4.9563147e-08 -8.5898012e-30)
(2.5411048e-07 -4.9759916e-08 -1.163369e-28)
(2.4663785e-07 -4.9716891e-08 7.6313823e-28)
(2.3854295e-07 -4.9390534e-08 1.5842675e-27)
(2.300537e-07 -4.8656289e-08 -6.2821172e-27)
(2.1925097e-07 -4.7620496e-08 2.4664739e-27)
(2.1192223e-07 -4.2380722e-08 3.0912463e-26)
(2.5394049e-07 -4.2722153e-08 6.2495789e-29)
(2.4696727e-07 -4.2634537e-08 -1.7536986e-28)
(2.3971114e-07 -4.2250877e-08 -3.303131e-29)
(2.3213358e-07 -4.144334e-08 1.0301224e-27)
(2.2434043e-07 -3.9893539e-08 -1.1038034e-28)
(2.1676439e-07 -3.744153e-08 -3.4951771e-28)
(2.1057507e-07 -3.4097843e-08 -2.3560191e-27)
(2.5948921e-07 -3.5965866e-08 6.0742737e-31)
(2.5309041e-07 -3.6041605e-08 -6.4403236e-30)
(2.4645248e-07 -3.5946259e-08 2.8064398e-29)
(2.3959659e-07 -3.5638265e-08 -5.672898e-29)
(2.325633e-07 -3.5054783e-08 2.9913501e-28)
(2.2542433e-07 -3.410357e-08 -5.0337307e-28)
(2.1831162e-07 -3.2639225e-08 2.4179418e-28)
(2.118962e-07 -3.0737304e-08 -1.561408e-28)
(2.0602278e-07 -2.840929e-08 -2.3337349e-27)
(2.5161855e-07 -2.9715626e-08 -3.1782724e-30)
(2.452644e-07 -2.955259e-08 4.0471615e-30)
(2.386865e-07 -2.9249462e-08 -1.585477e-30)
(2.3192437e-07 -2.8775172e-08 -4.7327869e-29)
(2.2503925e-07 -2.8084236e-08 1.0939247e-28)
(2.1812589e-07 -2.7119227e-08 4.8589262e-28)
(2.1127413e-07 -2.5818018e-08 7.0136472e-28)
(2.0505821e-07 -2.4250525e-08 -1.0619371e-27)
(1.9902811e-07 -2.2402064e-08 -6.3122295e-27)
(2.4347577e-07 -2.3505051e-08 -5.1005185e-29)
(2.3716289e-07 -2.3111422e-08 -4.0375419e-30)
(2.3062603e-07 -2.2618462e-08 7.3752373e-30)
(2.2390914e-07 -2.2011566e-08 -1.3436608e-28)
(2.1707028e-07 -2.1267039e-08 5.6304449e-29)
(2.1018701e-07 -2.0356652e-08 6.2439565e-28)
(2.0330165e-07 -1.9250503e-08 1.0113066e-28)
(1.9695582e-07 -1.7986951e-08 -8.8651953e-28)
(1.9064202e-07 -1.6515821e-08 3.8592498e-27)
(2.4674352e-07 -1.8398563e-08 -7.2428589e-29)
(2.4106886e-07 -1.7895889e-08 -3.7726541e-29)
(2.3507467e-07 -1.7328631e-08 2.7490552e-29)
(2.2879922e-07 -1.6702465e-08 -1.8939716e-29)
(2.2228231e-07 -1.6019821e-08 -3.9349058e-30)
(2.1556266e-07 -1.5282859e-08 -5.7789416e-29)
(2.0868441e-07 -1.4490489e-08 7.9718864e-29)
(2.0169442e-07 -1.364096e-08 -7.2602217e-28)
(1.9458453e-07 -1.2730537e-08 1.1246846e-27)
(1.8787445e-07 -1.1803169e-08 -2.4195061e-27)
(1.8098764e-07 -1.0922367e-08 5.6288168e-29)
(2.4784718e-07 -1.434042e-08 1.6182145e-27)
(2.4309115e-07 -1.3553571e-08 -1.2676618e-27)
(2.3790692e-07 -1.2803722e-08 4.6578027e-28)
(2.3235336e-07 -1.2021155e-08 -3.6413764e-29)
(2.2643968e-07 -1.1186342e-08 -1.4934722e-29)
(2.2020749e-07 -1.0312917e-08 3.5377578e-29)
(2.1369876e-07 -9.419011e-09 1.3852651e-29)
(2.0694487e-07 -8.521664e-09 1.714203e-29)
(1.9997361e-07 -7.6387804e-09 1.0834719e-28)
(1.9279907e-07 -6.7896554e-09 9.9025378e-29)
(1.8534789e-07 -6.0009903e-09 -3.5155539e-28)
(1.7804378e-07 -5.3465577e-09 -1.9974957e-28)
(1.7011659e-07 -5.1793736e-09 1.1036943e-26)
(2.4973504e-07 -1.2882639e-08 3.1469908e-26)
(2.4664456e-07 -1.2229948e-08 2.7821655e-27)
(2.4278658e-07 -1.1133751e-08 -4.1719798e-27)
(2.3810271e-07 -9.5085543e-09 -2.3170715e-28)
(2.337457e-07 -8.3608714e-09 -4.0073328e-28)
(2.2878911e-07 -7.3022154e-09 3.8400711e-28)
(2.2341123e-07 -6.2225719e-09 -2.2447675e-29)
(2.1761453e-07 -5.0987352e-09 2.4067734e-28)
(2.1144531e-07 -3.9464255e-09 -1.1248083e-28)
(2.0495076e-07 -2.7973144e-09 3.1916471e-29)
(1.9815993e-07 -1.6794556e-09 -3.4192612e-29)
(1.9108685e-07 -6.1341232e-10 2.687999e-28)
(1.8371664e-07 3.9368388e-10 2.6470568e-29)
(1.7591155e-07 1.3651057e-09 -2.9934383e-28)
(1.678783e-07 2.4470642e-09 1.311633e-27)
(1.5811384e-07 3.8366673e-09 -1.3650752e-26)
(1.5042033e-07 8.8982687e-09 1.9307781e-26)
(2.3709632e-07 -9.6439785e-09 4.6084385e-26)
(2.3222273e-07 -7.3745297e-09 1.2112084e-26)
(2.2809755e-07 -4.2307285e-09 2.508763e-27)
(2.2417934e-07 -3.291384e-09 1.7241099e-27)
(2.1949519e-07 -1.9661178e-09 -5.1706517e-28)
(2.1431934e-07 -5.5677123e-10 -1.9212436e-28)
(2.0866681e-07 8.9375879e-10 -3.2164472e-28)
(2.025903e-07 2.3670547e-09 8.3191803e-29)
(1.961404e-07 3.8222448e-09 -4.7667094e-29)
(1.8935182e-07 5.2221432e-09 8.2336188e-29)
(1.8224603e-07 6.5478932e-09 -1.1365428e-28)
(1.7482887e-07 7.817932e-09 -2.2033139e-28)
(1.6705937e-07 9.1307357e-09 4.1600836e-28)
(1.5906055e-07 1.0846393e-08 5.8592401e-28)
(1.5124029e-07 1.338829e-08 1.5851125e-28)
(1.446206e-07 1.6296783e-08 -8.2231997e-27)
(2.1805179e-07 -4.7203593e-10 -5.9194572e-27)
(2.1399871e-07 1.5981536e-09 2.7675728e-27)
(2.1008205e-07 3.0828847e-09 -2.3939635e-28)
(2.0514198e-07 4.8926376e-09 -6.5455908e-30)
(1.9965618e-07 6.7328151e-09 -3.8263544e-28)
(1.9371186e-07 8.5742061e-09 1.0298625e-28)
(1.8735089e-07 1.0382297e-08 -5.2473817e-29)
(1.8061341e-07 1.2107878e-08 9.794577e-29)
(1.7353829e-07 1.371953e-08 3.3519079e-29)
(1.6616032e-07 1.5224642e-08 4.0263601e-31)
(1.5850789e-07 1.6686741e-08 -4.164224e-28)
(1.5067658e-07 1.8264332e-08 1.8867382e-28)
(1.4332329e-07 1.9881026e-08 -2.0129538e-28)
(1.3594989e-07 2.0884611e-08 4.0238645e-28)
(2.0484499e-07 5.2185092e-09 2.6271526e-26)
(2.0040964e-07 8.1025911e-09 4.7216051e-27)
(1.959488e-07 1.012e-08 3.2060436e-28)
(1.906456e-07 1.237445e-08 8.8807811e-28)
(1.8487223e-07 1.462013e-08 -3.5630207e-29)
(1.7865222e-07 1.6820414e-08 -3.1136301e-28)
(1.7201819e-07 1.8910899e-08 2.3751097e-28)
(1.6502465e-07 2.0838393e-08 5.0368679e-31)
(1.5772507e-07 2.2589118e-08 1.4857816e-28)
(1.5015748e-07 2.4198267e-08 -2.5220102e-28)
(1.4231918e-07 2.5759118e-08 2.8418941e-28)
(1.3457093e-07 2.735141e-08 -9.9231114e-28)
(1.2556625e-07 2.8997046e-08 -1.4240389e-28)
(1.1841463e-07 3.3405469e-08 2.3109482e-26)
(1.9110545e-07 1.2118213e-08 -6.5598275e-27)
(1.8631681e-07 1.5367018e-08 -5.9616984e-27)
(1.8161577e-07 1.7775485e-08 7.4937867e-28)
(1.7610622e-07 2.0437706e-08 -8.3383663e-28)
(1.7009876e-07 2.3067414e-08 5.4861315e-28)
(1.6363472e-07 2.5558153e-08 -1.1841701e-28)
(1.5679611e-07 2.7829797e-08 -1.1700394e-28)
(1.496626e-07 2.9854301e-08 -1.3829229e-28)
(1.4229965e-07 3.1658892e-08 -5.824032e-28)
(1.3474835e-07 3.3359595e-08 6.7746869e-29)
(1.2718144e-07 3.5237552e-08 -9.7601499e-30)
(1.198505e-07 3.7554954e-08 1.0952994e-27)
(1.1336861e-07 3.9576005e-08 -7.1173697e-27)
(1.7706932e-07 1.9540247e-08 5.8234733e-26)
(1.7224656e-07 2.3048527e-08 3.9864152e-27)
(1.6744181e-07 2.5943554e-08 3.5742986e-29)
(1.6173289e-07 2.9047196e-08 4.8196892e-28)
(1.5550117e-07 3.1973029e-08 -3.0599477e-28)
(1.488944e-07 3.4596786e-08 7.0439664e-28)
(1.4202521e-07 3.6886433e-08 -2.6430203e-28)
(1.349785e-07 3.8860803e-08 1.8891281e-28)
(1.2782843e-07 4.0607024e-08 -3.5037697e-28)
(1.2067399e-07 4.2309497e-08 4.6752716e-28)
(1.1391464e-07 4.4048303e-08 -4.0281338e-28)
(1.0669555e-07 4.568543e-08 1.3233051e-26)
(1.0140149e-07 4.8702108e-08 8.190684e-28)
(1.6347647e-07 2.728206e-08 -2.1987312e-26)
(1.5865177e-07 3.1249136e-08 -6.3417639e-27)
(1.5357256e-07 3.4708805e-08 -9.0812928e-28)
(1.4762717e-07 3.8094642e-08 2.4823191e-28)
(1.4133005e-07 4.105547e-08 -5.7669698e-28)
(1.3484077e-07 4.3572563e-08 6.9332435e-28)
(1.2824505e-07 4.5672423e-08 -1.3988815e-28)
(1.2163676e-07 4.7426594e-08 -2.8452822e-28)
(1.1512572e-07 4.8986447e-08 8.3316307e-28)
(1.0893493e-07 5.0567213e-08 -3.808386e-28)
(1.0337071e-07 5.2272866e-08 6.8149895e-28)
(9.8552848e-08 5.3386965e-08 6.4726946e-27)
(1.5039509e-07 3.5667478e-08 1.6367978e-27)
(1.4534192e-07 4.0214357e-08 -4.4855516e-27)
(1.3995443e-07 4.3874891e-08 2.9520506e-28)
(1.3407025e-07 4.7119473e-08 -5.8020265e-28)
(1.2809436e-07 4.979351e-08 -8.8273086e-28)
(1.2209522e-07 5.1943373e-08 7.5927838e-29)
(1.1615744e-07 5.3631926e-08 1.6968238e-28)
(1.1038735e-07 5.4966459e-08 -3.3019311e-28)
(1.0490766e-07 5.6106826e-08 1.1288005e-28)
(1.0003259e-07 5.7113458e-08 -1.2926712e-28)
(9.4847819e-08 5.7734071e-08 4.3936611e-27)
(9.1501377e-08 5.9382367e-08 -1.0268912e-26)
(1.3720158e-07 4.4841602e-08 -3.5668874e-26)
(1.3212306e-07 4.9447044e-08 5.381245e-27)
(1.2704812e-07 5.2647741e-08 7.044639e-28)
(1.2177014e-07 5.5398798e-08 9.0854829e-29)
(1.1654455e-07 5.7521135e-08 -6.8964924e-28)
(1.114531e-07 5.9074322e-08 2.6531392e-29)
(1.0660571e-07 6.0145756e-08 -5.8071411e-29)
(1.0211198e-07 6.0887332e-08 -2.0991842e-28)
(9.812006e-08 6.1490445e-08 1.2339688e-28)
(9.4812654e-08 6.2059715e-08 -1.3401034e-27)
(9.2101558e-08 6.2256432e-08 1.1620714e-26)
(1.2426442e-07 5.3715127e-08 -2.9739382e-27)
(1.1999174e-07 5.7496091e-08 -6.8459606e-28)
(1.1587607e-07 6.0137106e-08 1.8199126e-28)
(1.1160898e-07 6.2201878e-08 8.0819939e-28)
(1.0754086e-07 6.3554918e-08 7.5662636e-29)
(1.038052e-07 6.4281421e-08 -1.4041093e-28)
(1.0051447e-07 6.4533262e-08 -3.1375581e-29)
(9.775859e-08 6.4498623e-08 1.7053609e-28)
(9.5720787e-08 6.4295701e-08 1.3228336e-27)
(9.3614903e-08 6.3600807e-08 -5.9191787e-28)
(9.4012233e-08 6.2668251e-08 5.9370178e-28)
(1.1357822e-07 6.0734362e-08 -5.0221013e-26)
(1.1038003e-07 6.3919298e-08 -1.213459e-27)
(1.0734828e-07 6.5794284e-08 -2.220353e-28)
(1.0443904e-07 6.6887719e-08 -3.1772361e-28)
(1.0200022e-07 6.7167686e-08 2.4066248e-28)
(1.0016619e-07 6.6827811e-08 -4.4545542e-28)
(9.9014492e-08 6.6087518e-08 8.3129107e-28)
(9.8643248e-08 6.5136233e-08 -7.8149402e-28)
(9.908431e-08 6.3979602e-08 -7.8503375e-28)
(1.0094464e-07 6.2668893e-08 -1.7284486e-26)
(1.0550768e-07 6.6035361e-08 -4.2523207e-27)
(1.0362081e-07 6.8229721e-08 9.3561665e-28)
(1.0208614e-07 6.8905771e-08 -2.0767206e-28)
(1.0107661e-07 6.8605948e-08 -6.8001177e-28)
(1.0086947e-07 6.7518669e-08 9.7502085e-28)
(1.0149528e-07 6.5902853e-08 -7.8879569e-28)
(1.0302809e-07 6.3948752e-08 1.3340024e-29)
(1.0558806e-07 6.1795063e-08 1.809648e-27)
(1.091384e-07 5.9487779e-08 5.2088646e-27)
(1.1416868e-07 5.5005616e-08 -2.801542e-27)
(1.0054545e-07 6.8831014e-08 2.8291093e-26)
(1.0033647e-07 6.9549456e-08 -2.4084109e-27)
(1.0091805e-07 6.846894e-08 -1.8714708e-28)
(1.0246187e-07 6.6492376e-08 -1.3144397e-27)
(1.0498214e-07 6.3890728e-08 2.7781813e-27)
(1.0849755e-07 6.0862299e-08 -1.476184e-28)
(1.1305473e-07 5.7603668e-08 -8.9312659e-28)
(1.1867356e-07 5.3958505e-08 3.7737046e-28)
(1.2481408e-07 4.9582171e-08 2.2139114e-27)
(1.3222978e-07 4.3832061e-08 -3.9992571e-26)
(9.9229669e-08 6.7924475e-08 -8.6684727e-27)
(1.0137907e-07 6.6489924e-08 -4.2078313e-27)
(1.0483404e-07 6.3552918e-08 2.6629516e-27)
(1.0935297e-07 5.9949972e-08 -8.8559146e-28)
(1.1493277e-07 5.5805966e-08 -2.0573913e-27)
(1.2155107e-07 5.1493627e-08 -6.5404314e-28)
(1.2909094e-07 4.6908832e-08 4.6160106e-28)
(1.374933e-07 4.1711889e-08 -1.4613372e-29)
(1.4608598e-07 3.6098812e-08 -5.328922e-27)
(1.5623636e-07 2.8935954e-08 2.4001212e-26)
(1.0300923e-07 6.2016697e-08 1.993546e-26)
(1.0801627e-07 5.8186026e-08 4.9891434e-27)
(1.1472687e-07 5.4021155e-08 -1.4333115e-28)
(1.2239156e-07 4.872788e-08 1.5029582e-28)
(1.3107343e-07 4.3376024e-08 1.4880357e-27)
(1.4059005e-07 3.7881159e-08 -5.8915422e-28)
(1.5091286e-07 3.195375e-08 -3.4994201e-28)
(1.6205568e-07 2.533539e-08 -6.3379837e-28)
(1.7371967e-07 1.8229702e-08 -4.4576434e-27)
(1.8625478e-07 8.1905244e-09 1.0971951e-26)
(1.136026e-07 5.258929e-08 -1.4265539e-26)
(1.2183891e-07 4.66166e-08 -2.7304001e-27)
(1.3119375e-07 3.9779245e-08 1.075389e-27)
(1.4164088e-07 3.339288e-08 -6.6475988e-29)
(1.5291013e-07 2.7019099e-08 -4.4113844e-28)
(1.6489402e-07 2.0339618e-08 -1.5240368e-28)
(1.7754071e-07 1.3156623e-08 1.2546851e-28)
(1.9073056e-07 5.2250073e-09 7.791372e-28)
(2.0328508e-07 -3.2894828e-09 2.9856912e-27)
(2.1596662e-07 -1.2577072e-08 -2.2407586e-26)
(1.1999665e-07 4.478217e-08 7.0796258e-27)
(1.2985524e-07 3.637898e-08 -4.3032255e-27)
(1.4168612e-07 2.8525957e-08 2.6767285e-28)
(1.5330901e-07 2.1780954e-08 -3.7149245e-28)
(1.6607256e-07 1.4669649e-08 3.0307898e-29)
(1.7950544e-07 7.3353144e-09 -5.9570475e-29)
(1.9349065e-07 -2.4906363e-10 -3.5099893e-28)
(2.0779384e-07 -8.2133417e-09 -8.2788193e-28)
(2.219553e-07 -1.6642505e-08 9.7044226e-29)
(2.3510396e-07 -2.4548284e-08 5.7948363e-27)
(2.4910781e-07 -3.3841189e-08 -6.2092078e-26)
(1.415026e-07 2.3136997e-08 3.9473272e-26)
(1.5278765e-07 1.5565677e-08 -5.0595025e-27)
(1.6598297e-07 9.0405425e-09 1.2629228e-27)
(1.8004435e-07 1.0742402e-09 -2.044284e-28)
(1.9476046e-07 -6.9182113e-09 4.3019771e-28)
(2.0996323e-07 -1.4850751e-08 -7.4954524e-29)
(2.2535933e-07 -2.285666e-08 1.3835655e-28)
(2.4065056e-07 -3.1000429e-08 3.9397121e-28)
(2.5566369e-07 -3.9156699e-08 7.850519e-28)
(2.7009869e-07 -4.6872535e-08 -2.2478346e-27)
(2.8466964e-07 -5.7062717e-08 -2.518174e-26)
(1.6653338e-07 4.4951735e-09 -3.0271708e-27)
(1.8036471e-07 -4.1103435e-09 2.7579719e-28)
(1.9502985e-07 -1.3512837e-08 -9.8324672e-29)
(2.1071543e-07 -2.2235827e-08 -2.0668301e-28)
(2.2693874e-07 -3.0496559e-08 -1.1359485e-28)
(2.4327111e-07 -3.8532162e-08 -8.6690552e-29)
(2.5945113e-07 -4.6437756e-08 -3.0462142e-28)
(2.7527851e-07 -5.4218464e-08 8.7492279e-28)
(2.9060971e-07 -6.1976827e-08 -2.9788139e-28)
(3.0422762e-07 -6.9340097e-08 6.7339007e-27)
(3.1752416e-07 -7.727985e-08 8.8850432e-27)
(1.7977331e-07 -8.2923961e-09 5.1620713e-27)
(1.940698e-07 -2.0052456e-08 2.9733278e-27)
(2.1109151e-07 -2.9538368e-08 -1.4368273e-29)
(2.2729463e-07 -3.8435397e-08 -5.6933901e-28)
(2.4439262e-07 -4.7007388e-08 4.3615938e-28)
(2.6152192e-07 -5.5027777e-08 1.8950191e-29)
(2.7842719e-07 -6.2644552e-08 -1.7638444e-28)
(2.9487968e-07 -6.9918889e-08 4.2939845e-29)
(3.1069392e-07 -7.6922558e-08 -1.5216861e-28)
(3.2541372e-07 -8.3669632e-08 1.4289237e-28)
(3.3830137e-07 -8.9010897e-08 1.0638492e-27)
(3.5194064e-07 -9.5704954e-08 1.199815e-26)
(2.1207658e-07 -3.4846231e-08 -1.6376356e-26)
(2.272591e-07 -4.4860435e-08 6.5569987e-28)
(2.4437366e-07 -5.5193383e-08 4.1902565e-28)
(2.622195e-07 -6.4261563e-08 -1.2490532e-28)
(2.8009526e-07 -7.2239838e-08 -5.3232261e-29)
(2.9759124e-07 -7.9516241e-08 2.4496004e-28)
(3.1455085e-07 -8.6284013e-08 -3.4820607e-30)
(3.3083367e-07 -9.2629234e-08 8.7632165e-28)
(3.4625321e-07 -9.8614713e-08 -5.1637725e-28)
(3.6095691e-07 -1.0407724e-07 -1.0218817e-27)
(3.7509825e-07 -1.0856352e-07 -7.145105e-28)
(3.8801747e-07 -1.1872345e-07 -6.1185041e-27)
(4.0093615e-07 -1.2646334e-07 9.8222471e-27)
(2.25121e-07 -4.9103007e-08 -2.2924359e-26)
(2.4182699e-07 -6.3832999e-08 -8.8230981e-27)
(2.6227779e-07 -7.3772618e-08 -4.7576022e-28)
(2.8054995e-07 -8.2352124e-08 7.5798597e-29)
(2.9902987e-07 -9.0041908e-08 4.2135077e-28)
(3.1692126e-07 -9.687198e-08 -1.7661509e-28)
(3.341698e-07 -1.03122e-07 -4.3246706e-28)
(3.5071843e-07 -1.0891266e-07 -1.3430726e-28)
(3.6648406e-07 -1.1435197e-07 -4.2353878e-28)
(3.8154632e-07 -1.1953333e-07 7.3572282e-28)
(3.957181e-07 -1.2492853e-07 -2.1104043e-28)
(4.0949326e-07 -1.3181109e-07 8.7180875e-28)
(4.2121288e-07 -1.3665127e-07 -3.4186439e-27)
(4.3299655e-07 -1.4127051e-07 1.8747012e-26)
(2.6373774e-07 -8.17658e-08 -2.7696378e-27)
(2.8110332e-07 -9.1332204e-08 -6.988582e-28)
(2.9978685e-07 -1.0057038e-07 -1.3526045e-28)
(3.1839382e-07 -1.0805136e-07 4.0359429e-28)
(3.3640469e-07 -1.1437791e-07 -1.646986e-28)
(3.5367448e-07 -1.200874e-07 3.9869923e-28)
(3.7024963e-07 -1.2533004e-07 -5.5826325e-29)
(3.8608195e-07 -1.3020117e-07 -7.9083497e-29)
(4.0118997e-07 -1.3481471e-07 -1.0371833e-27)
(4.1544169e-07 -1.3943188e-07 3.242143e-28)
(4.2879131e-07 -1.4405362e-07 -5.8184579e-28)
(4.4154947e-07 -1.4840562e-07 -3.5729392e-28)
(4.5028751e-07 -1.4946386e-07 -3.4278895e-27)
(4.5888325e-07 -1.5270952e-07 6.7257235e-27)
(4.6961329e-07 -1.5401134e-07 -9.9011239e-27)
(2.8027383e-07 -9.7969651e-08 -4.7431208e-26)
(2.9829044e-07 -1.1218428e-07 1.5157916e-26)
(3.1995472e-07 -1.1977595e-07 -1.180146e-27)
(3.3809133e-07 -1.2602194e-07 -1.6185535e-28)
(3.5591096e-07 -1.3170407e-07 -9.0151209e-29)
(3.7292791e-07 -1.3687144e-07 1.54431e-28)
(3.8928866e-07 -1.4156565e-07 1.4725748e-28)
(4.049372e-07 -1.4584237e-07 -9.8726398e-29)
(4.1982435e-07 -1.4977685e-07 -1.0160968e-28)
(4.3383448e-07 -1.5347117e-07 4.8345479e-28)
(4.4680738e-07 -1.5678421e-07 -1.332217e-28)
(4.5856606e-07 -1.5929738e-07 -6.5488474e-29)
(4.6842121e-07 -1.6058495e-07 5.9331686e-28)
(4.7832265e-07 -1.6142771e-07 4.0939237e-28)
(4.8646397e-07 -1.6001485e-07 -1.2276377e-27)
(4.9395194e-07 -1.5846799e-07 1.0082313e-26)
(3.2433437e-07 -1.3182606e-07 -7.517372e-27)
(3.4186784e-07 -1.3717062e-07 -1.1700592e-27)
(3.5819582e-07 -1.429525e-07 5.1808099e-28)
(3.7521249e-07 -1.4842707e-07 1.075445e-28)
(3.9175779e-07 -1.5322139e-07 7.9482649e-30)
(4.0774927e-07 -1.5740799e-07 -7.1319912e-29)
(4.2306213e-07 -1.6106241e-07 -8.6940644e-29)
(4.376017e-07 -1.6425196e-07 1.526524e-28)
(4.5126256e-07 -1.6701093e-07 -4.0551491e-29)
(4.6391305e-07 -1.6922253e-07 -1.0022786e-28)
(4.7543664e-07 -1.7063486e-07 1.6585832e-28)
(4.8574243e-07 -1.7100962e-07 1.0271716e-28)
(4.9525862e-07 -1.7021706e-07 5.5483974e-28)
(5.0424888e-07 -1.6867741e-07 -1.8966706e-27)
(5.0916447e-07 -1.6369192e-07 -5.4754101e-27)
(5.1466593e-07 -1.6137962e-07 -9.7136068e-27)
(5.2310245e-07 -1.5750536e-07 1.2846117e-26)
(6.0696622e-07 -9.0203861e-08 5.6976101e-28)
(6.0781584e-07 -9.0170685e-08 6.6686221e-29)
(6.0429999e-07 -8.9690935e-08 -7.1672254e-29)
(3.4706715e-07 -1.4464819e-07 2.2140468e-27)
(3.6182264e-07 -1.5219654e-07 2.7692124e-27)
(3.7700759e-07 -1.5894225e-07 -1.0279641e-28)
(3.9360098e-07 -1.6464404e-07 -2.9150052e-28)
(4.0985803e-07 -1.6915785e-07 3.5173955e-29)
(4.2550755e-07 -1.7282599e-07 4.1382713e-29)
(4.4044454e-07 -1.7582586e-07 5.1694575e-29)
(4.5459026e-07 -1.782468e-07 -4.0310935e-29)
(4.6787309e-07 -1.8011201e-07 -1.6994843e-28)
(4.8020807e-07 -1.8134252e-07 6.2022134e-30)
(4.9153181e-07 -1.8178906e-07 -1.7849245e-28)
(5.0185284e-07 -1.8129751e-07 -2.8680512e-28)
(5.1122056e-07 -1.7969738e-07 -9.5096034e-28)
(5.1954383e-07 -1.768703e-07 -1.0418159e-28)
(5.2631139e-07 -1.7272257e-07 -8.9246781e-28)
(5.3368638e-07 -1.6825841e-07 2.5942549e-28)
(5.3945292e-07 -1.6204916e-07 -1.60733e-27)
(5.4474566e-07 -1.5889781e-07 3.6048039e-28)
(5.528591e-07 -1.5413449e-07 9.0138187e-27)
(5.5858773e-07 -1.471046e-07 8.1036233e-27)
(6.1509151e-07 -9.2920215e-08 -1.9684099e-29)
(6.156345e-07 -9.2716654e-08 -7.3841908e-29)
(6.1735212e-07 -9.1792719e-08 -4.7088614e-29)
(6.1995729e-07 -9.1814533e-08 -2.9555456e-29)
(6.1859069e-07 -9.1404781e-08 7.4192227e-30)
(3.6453026e-07 -1.5639001e-07 8.1871035e-28)
(3.7788308e-07 -1.6682664e-07 -2.1863127e-28)
(3.9417014e-07 -1.7504184e-07 3.0681862e-28)
(4.1102299e-07 -1.8079466e-07 -1.1753629e-28)
(4.2722429e-07 -1.8482341e-07 1.4877018e-28)
(4.4255772e-07 -1.8785415e-07 -1.4806854e-29)
(4.5708703e-07 -1.9014033e-07 -1.3705852e-29)
(4.7080182e-07 -1.9178108e-07 4.8681627e-30)
(4.8367968e-07 -1.9279749e-07 -4.9847129e-29)
(4.9567987e-07 -1.9313833e-07 1.6896437e-29)
(5.0676957e-07 -1.9270531e-07 3.2473498e-28)
(5.1696122e-07 -1.9139173e-07 -1.7309298e-28)
(5.2625196e-07 -1.8909127e-07 6.6294161e-28)
(5.3461617e-07 -1.8572739e-07 8.9375034e-28)
(5.4210631e-07 -1.8134074e-07 -1.2784477e-27)
(5.4926644e-07 -1.7617833e-07 9.7466545e-28)
(5.5606403e-07 -1.7100916e-07 -2.5150884e-28)
(5.6170994e-07 -1.647962e-07 5.7465421e-28)
(5.6805865e-07 -1.5816849e-07 2.4577046e-29)
(5.7184899e-07 -1.4905787e-07 2.5338554e-27)
(5.7455158e-07 -1.419455e-07 -4.2239428e-27)
(5.8084663e-07 -1.3381602e-07 -3.7973264e-27)
(5.8708781e-07 -1.2462785e-07 4.9503938e-27)
(5.897898e-07 -1.1545747e-07 6.9661728e-27)
(6.288128e-07 -8.9017896e-08 -1.8961604e-27)
(6.3094088e-07 -9.0605407e-08 -8.8990312e-28)
(6.2868684e-07 -9.2039774e-08 -4.8121344e-28)
(6.2557853e-07 -9.3062828e-08 -7.3813133e-29)
(6.2674749e-07 -9.3984453e-08 6.1668589e-28)
(6.289389e-07 -9.3893069e-08 -4.7317108e-29)
(6.2952961e-07 -9.2618906e-08 -1.8518826e-29)