/*--------------------------------*- C++ -*----------------------------------*\
| =========                 |                                                 |
| \\      /  F ield         | OpenFOAM: The Open Source CFD Toolbox           |
|  \\    /   O peration     | Version:  2412                                  |
|   \\  /    A nd           | Website:  www.openfoam.com                      |
|    \\/     M anipulation  |                                                 |
\*---------------------------------------------------------------------------*/
FoamFile
{
    version     2.0;
    format      ascii;
    arch        "LSB;label=32;scalar=64";
    class       volScalarField;
    location    "15174";
    object      p;
}
// * * * * * * * * * * * * * * * * * * * * * * * * * * * * * * * * * * * * * //

dimensions      [0 2 -2 0 0 0 0];

internalField   nonuniform List<scalar> 
57691
(
0.0082122623
0.0082197538
0.0082107819
0.0082104645
0.0082094763
0.0082164996
0.0082086124
0.0082084959
0.0082083277
0.0082080943
0.008207787
0.0082075558
0.0082076481
0.0082061918
0.0082136547
0.0081015068
0.0081093021
0.0082059695
0.0082060269
0.0082059781
0.0082058339
0.0082056049
0.0082052946
0.0082049005
0.0082044738
0.0082042944
0.008204097
0.0082023518
0.0082115709
0.0080957953
0.0081091787
0.0081057611
0.0081043661
0.0081029778
0.0081010397
0.0080993296
0.0080977388
0.0080954036
0.0080957565
0.0080993614
0.0082025008
0.0082030584
0.0082033721
0.0082034897
0.0082034465
0.0082032659
0.0082029666
0.008202557
0.0082020425
0.0082014295
0.0082007489
0.0082000171
0.0081989471
0.0081969435
0.008198761
0.0080935871
0.0081074819
0.0081061285
0.0081051799
0.008104021
0.0081027119
0.008101057
0.0080994789
0.008097825
0.0080954057
0.0080958023
0.0080967192
0.0081942476
0.0081968585
0.0081986088
0.0081998228
0.0082005712
0.008200976
0.0082011214
0.0082010602
0.008200828
0.0082004499
0.0081999392
0.008199305
0.0081985569
0.008197675
0.0081966611
0.0081955346
0.0081944492
0.0081914168
0.0081972449
0.008089639
0.0081062777
0.008105447
0.0081055136
0.0081049366
0.0081038051
0.0081026244
0.0081011565
0.0080996433
0.0080979986
0.0080955269
0.0080959691
0.0080978626
0.0081725023
0.0081833273
0.0081905598
0.0081941878
0.0081961521
0.0081975779
0.008198427
0.0081988493
0.0081989693
0.0081988535
0.0081985455
0.0081980739
0.0081974535
0.0081966924
0.0081957942
0.0081947305
0.0081934808
0.0081919676
0.0081903009
0.0081877214
0.008183809
0.008182715
0.0081686468
0.0080979917
0.0081033714
0.0081080916
0.0081056888
0.0081059709
0.0081057204
0.0081049531
0.0081038729
0.0081027416
0.0081013604
0.0080998693
0.0080981914
0.0080954445
0.008095343
0.0080989283
0.0081436764
0.0081726862
0.0081837906
0.0081919733
0.0081943089
0.0081958324
0.0081966839
0.0081970352
0.0081970634
0.0081968481
0.0081964356
0.0081958547
0.0081951194
0.0081942356
0.0081932027
0.0081919968
0.0081905994
0.0081889414
0.0081870702
0.0081847503
0.008180744
0.0081807858
0.0081735178
0.0081765889
0.0081077381
0.0081104626
0.0081055564
0.0081096308
0.0081071819
0.0081068236
0.0081061459
0.0081052444
0.0081041854
0.0081030472
0.0081017273
0.0081003034
0.0080987237
0.0080961092
0.0080965102
0.0081014452
0.0081880915
0.0081884713
0.0081938105
0.0081943896
0.008195104
0.0081955268
0.0081955996
0.0081954282
0.0081950537
0.0081945043
0.0081937975
0.0081929429
0.0081919417
0.0081907907
0.0081894701
0.0081879624
0.0081862181
0.0081842325
0.0081819423
0.0081789337
0.0081764053
0.0081720699
0.0081701416
0.008170595
0.0081540837
0.0080989784
0.0081043506
0.0081145693
0.0081108212
0.0081113382
0.0081103774
0.0081085374
0.0081076721
0.0081067185
0.0081057131
0.0081046414
0.0081034907
0.0081022225
0.0081008696
0.0080993889
0.0080968979
0.0080977097
0.0081033222
0.0081865627
0.0081899954
0.0081947775
0.0081944667
0.0081946272
0.008194642
0.0081944061
0.0081940001
0.0081934393
0.0081927348
0.0081918935
0.008190919
0.0081898076
0.0081885542
0.0081871424
0.0081855569
0.0081837642
0.0081817471
0.008179469
0.0081768367
0.0081742271
0.008170813
0.0081672008
0.0081676096
0.0081594253
0.0081605284
0.0081524701
0.0081350876
0.0081166075
0.0081182018
0.0081154848
0.0081115584
0.0081168712
0.0081137872
0.008112254
0.0081109144
0.0081094685
0.0081083875
0.0081073189
0.0081062594
0.0081051697
0.0081040325
0.0081028131
0.0081015328
0.0081001331
0.0080977146
0.0080987053
0.0081044313
0.0081883353
0.0081932938
0.0081964282
0.0081949385
0.0081944338
0.0081939771
0.0081933969
0.0081927331
0.0081919722
0.0081911042
0.0081901266
0.0081890349
0.0081878218
0.0081864805
0.0081849968
0.0081833583
0.0081815433
0.0081795375
0.0081773204
0.0081748772
0.0081723554
0.0081694941
0.0081666537
0.0081645248
0.0081582004
0.0081573519
0.0081564213
0.0081465119
0.0081514382
0.0081460586
0.0081391357
0.0081372712
0.0081359354
0.0081347745
0.0081324286
0.0081317838
0.0081313879
0.0081312965
0.0081304383
0.0081306724
0.0081313117
0.0081330323
0.008129882
0.0081292765
0.0081269008
0.0081245826
0.0081199934
0.0081195198
0.0081178753
0.0081168604
0.0081145099
0.008112934
0.0081115878
0.0081102262
0.0081090453
0.0081079222
0.0081068337
0.0081057438
0.0081046372
0.0081034784
0.0081022784
0.0081009376
0.0080985297
0.0080993126
0.0081039266
0.0081891939
0.0081955746
0.0081975832
0.0081952662
0.0081942241
0.0081933591
0.0081924685
0.0081915632
0.0081906092
0.0081895836
0.008188475
0.0081872729
0.0081859679
0.0081845508
0.0081830102
0.0081813351
0.0081795116
0.0081775292
0.0081753779
0.0081730592
0.0081706205
0.008167997
0.0081653623
0.008162915
0.008159131
0.0081570235
0.0081546761
0.0081471425
0.0081482984
0.0081475493
0.0081433909
0.0081416317
0.0081400794
0.0081386456
0.0081365641
0.0081356671
0.0081349499
0.0081344544
0.0081335148
0.0081332932
0.0081331864
0.0081335681
0.0081304799
0.0081294382
0.008129495
0.0081278502
0.0081244139
0.0081215605
0.0081188206
0.0081170888
0.0081151905
0.0081136264
0.0081122105
0.0081108613
0.0081096424
0.0081084984
0.0081074036
0.0081063374
0.0081052829
0.0081042172
0.0081031475
0.008101947
0.0080998378
0.0081008242
0.008101214
0.0081954994
0.0081973129
0.0081979358
0.0081953001
0.0081938624
0.0081926811
0.0081915449
0.0081904367
0.0081893126
0.0081881449
0.0081869161
0.0081856139
0.0081842269
0.0081827454
0.0081811594
0.0081794597
0.0081776368
0.0081756834
0.0081735957
0.0081713778
0.0081690479
0.0081665954
0.0081640868
0.0081616016
0.0081586536
0.008156287
0.0081539053
0.0081502307
0.0081493045
0.0081477443
0.0081450384
0.0081432344
0.0081415906
0.0081401037
0.0081384725
0.0081373876
0.0081364566
0.008135694
0.0081348177
0.0081342389
0.0081336724
0.0081332428
0.0081314316
0.0081301137
0.0081290441
0.0081269923
0.0081238774
0.0081213591
0.0081191621
0.0081174361
0.0081156966
0.0081141407
0.0081127166
0.0081113872
0.008110165
0.0081090238
0.0081079454
0.0081069199
0.0081059409
0.0081050066
0.0081041504
0.0081033538
0.0081023662
0.0081045498
0.0081035313
0.008129502
0.0081592395
0.0081982305
0.0081969826
0.0081967483
0.0081946622
0.0081931893
0.0081918597
0.0081905733
0.008189316
0.0081880536
0.0081867638
0.0081854298
0.0081840389
0.0081825802
0.0081810444
0.0081794224
0.0081777067
0.0081758902
0.0081739684
0.00817194
0.0081698089
0.0081675857
0.0081652745
0.0081629053
0.0081605079
0.0081579357
0.0081555871
0.0081532475
0.0081505196
0.0081488367
0.0081469697
0.0081447658
0.008142956
0.0081413002
0.0081397831
0.0081382937
0.0081370978
0.0081360424
0.0081351069
0.008134167
0.0081333558
0.0081325312
0.0081316785
0.0081302317
0.0081288595
0.0081274752
0.0081256455
0.008123387
0.0081213229
0.0081194025
0.008117685
0.0081160341
0.0081145192
0.0081131194
0.0081118156
0.0081106079
0.0081094832
0.0081084315
0.0081074485
0.0081065326
0.0081056847
0.0081049209
0.0081042843
0.0081034594
0.0081024171
0.0081076169
0.0081213788
0.0084535513
0.0081743973
0.0081908479
0.0081976388
0.0081954675
0.0081937642
0.0081923647
0.0081909562
0.0081895676
0.0081881948
0.0081868192
0.0081854249
0.0081839991
0.0081825309
0.0081810103
0.0081794289
0.0081777787
0.0081760532
0.0081742472
0.0081723574
0.0081703836
0.0081683295
0.0081662025
0.0081640101
0.0081617706
0.0081595007
0.0081571642
0.0081549184
0.0081526948
0.0081503668
0.0081485004
0.0081466309
0.0081446744
0.0081429152
0.0081412808
0.0081397631
0.0081383221
0.0081370615
0.0081359163
0.0081348614
0.0081338327
0.0081328631
0.0081318743
0.0081308235
0.0081294802
0.0081281011
0.008126655
0.0081249698
0.008123076
0.0081212304
0.0081194635
0.0081178159
0.0081162494
0.0081147877
0.008113424
0.0081121509
0.0081109676
0.0081098678
0.0081088484
0.0081079096
0.0081070544
0.0081062913
0.0081056318
0.0081051532
0.0081047474
0.0081037962
0.0081079166
0.0081165926
0.0085026111
0.0084988966
0.0084955094
0.0084919988
0.0084883103
0.0084855469
0.0084821454
0.0084782163
0.0084764584
0.0084706113
0.008471222
0.0084691527
0.0084581048
0.0084689123
0.0084493296
0.0081662454
0.0081983839
0.0081969564
0.008196227
0.0081944057
0.0081929452
0.0081915025
0.008190024
0.0081885484
0.0081870765
0.0081856024
0.0081841165
0.0081826103
0.0081810745
0.0081795008
0.0081778815
0.0081762095
0.0081744792
0.0081726864
0.0081708284
0.0081689055
0.0081669209
0.0081648803
0.0081627911
0.0081606663
0.0081585189
0.0081563471
0.008154219
0.0081521215
0.0081500234
0.0081481398
0.008146302
0.0081444758
0.0081427715
0.0081411691
0.0081396661
0.008138247
0.0081369483
0.0081357398
0.0081345997
0.0081334914
0.0081324107
0.0081313113
0.008130155
0.0081288435
0.0081274676
0.0081260174
0.0081244312
0.0081227358
0.0081210532
0.0081194176
0.0081178577
0.0081163672
0.0081149602
0.0081136369
0.0081123977
0.0081112424
0.0081101708
0.0081091835
0.0081082844
0.0081074797
0.0081067795
0.0081061931
0.0081057756
0.0081054331
0.0081045496
0.008107658
0.0081107552
0.0085012661
0.0084974388
0.00849378
0.0084901307
0.008486483
0.0084832549
0.0084798723
0.0084764005
0.0084739339
0.0084704069
0.0084682007
0.0084644865
0.00845796
0.0084603255
0.0084505024
0.0084578753
0.0084508808
0.0084321991
0.0081672803
0.0081971809
0.0081936809
0.0081947152
0.0081946854
0.0081935098
0.0081921319
0.0081906403
0.0081890911
0.0081875274
0.0081859619
0.0081843972
0.0081828287
0.0081812507
0.0081796558
0.0081780366
0.0081763861
0.0081746979
0.008172967
0.0081711894
0.0081693631
0.008167488
0.0081655666
0.0081636036
0.0081616055
0.0081595822
0.0081575446
0.0081555003
0.0081534827
0.0081514963
0.0081495389
0.008147696
0.0081459086
0.0081441659
0.0081425117
0.0081409417
0.0081394552
0.0081380453
0.0081367228
0.0081354702
0.0081342711
0.008133101
0.0081319456
0.0081307752
0.0081295612
0.0081282587
0.0081268965
0.0081254728
0.0081239687
0.0081224056
0.0081208441
0.0081193116
0.0081178296
0.0081164054
0.0081150496
0.0081137666
0.0081125605
0.0081114331
0.0081103884
0.0081094297
0.0081085639
0.0081078004
0.0081071521
0.008106633
0.0081062862
0.0081060761
0.0081057125
0.0081082965
0.008107958
0.0081342638
0.0084998488
0.0084958562
0.0084919943
0.0084882072
0.0084845
0.0084810195
0.0084775551
0.0084741321
0.0084711403
0.0084678158
0.0084650592
0.0084617795
0.0084578378
0.0084559693
0.0084499386
0.0084496853
0.0084476918
0.008436854
0.0084442022
0.00843722
0.0084202349
0.0081953569
0.0081869137
0.0082069543
0.0081981323
0.0081967995
0.0081959262
0.0081946988
0.0081931338
0.0081915191
0.0081898655
0.0081881909
0.008186516
0.0081848507
0.0081831969
0.0081815513
0.0081799083
0.0081782613
0.0081766034
0.0081749277
0.0081732284
0.0081715004
0.0081697401
0.0081679452
0.0081661154
0.0081642526
0.0081623602
0.0081604438
0.0081585111
0.0081565711
0.0081546325
0.0081527146
0.0081508256
0.0081489719
0.00814719
0.0081454614
0.0081437841
0.0081421762
0.0081406383
0.0081391698
0.0081377669
0.0081364309
0.0081351498
0.0081339114
0.0081326974
0.0081314935
0.0081302792
0.0081290341
0.0081277355
0.0081263909
0.0081250005
0.008123561
0.0081220881
0.0081206144
0.0081191612
0.0081177451
0.0081163774
0.0081150667
0.0081138204
0.0081126436
0.0081115411
0.0081105185
0.008109582
0.0081087396
0.0081080033
0.0081073874
0.0081069043
0.0081065799
0.0081064503
0.0081061764
0.0081055648
0.0081118705
0.0081248982
0.0085026011
0.0084983709
0.0084941733
0.0084901174
0.0084861759
0.008482358
0.008478718
0.0084751736
0.0084717301
0.008468505
0.0084652064
0.0084621535
0.0084589318
0.0084555196
0.0084529871
0.0084492948
0.0084467914
0.0084433614
0.0084363246
0.0084363961
0.0084346205
0.0084251116
0.0084320479
0.0084157062
0.0081922425
0.0082150122
0.0082038996
0.0082060128
0.0082006159
0.008198603
0.0081966103
0.0081947093
0.0081928151
0.0081909573
0.0081891177
0.0081872953
0.0081854986
0.0081837308
0.0081819898
0.0081802718
0.0081785701
0.0081768777
0.0081751875
0.0081734926
0.008171787
0.0081700655
0.0081683244
0.0081665612
0.0081647752
0.0081629672
0.0081611398
0.0081592974
0.0081574459
0.0081555926
0.0081537455
0.0081519167
0.0081501143
0.0081483457
0.0081466286
0.0081449589
0.0081433377
0.0081417738
0.008140268
0.0081388197
0.0081374263
0.0081360855
0.0081347887
0.0081335261
0.0081322841
0.0081310504
0.0081298106
0.0081285502
0.0081272567
0.0081259304
0.0081245716
0.008123183
0.0081217748
0.0081203672
0.008118976
0.0081176141
0.0081162928
0.0081150205
0.0081138049
0.0081126522
0.0081115689
0.0081105617
0.0081096387
0.0081088095
0.0081080882
0.0081074922
0.0081070412
0.008106766
0.0081067449
0.0081068778
0.0081067228
0.008111666
0.0081159481
0.0085012656
0.008496839
0.0084923857
0.0084881295
0.0084840197
0.0084800703
0.0084763027
0.0084726745
0.0084691818
0.008465849
0.00846255
0.0084593743
0.0084561559
0.0084528787
0.0084499231
0.008446556
0.0084436238
0.0084403443
0.0084361047
0.0084336777
0.0084301648
0.0084232711
0.0084245642
0.0084165271
0.0084200879
0.0084119767
0.0083975329
0.0082146661
0.008203576
0.0082192069
0.0082130187
0.0082116882
0.0082071524
0.0082025685
0.0081996648
0.0081970484
0.008194702
0.0081924965
0.0081903894
0.0081883528
0.0081863749
0.0081844536
0.0081825843
0.0081807608
0.0081789763
0.0081772227
0.0081754918
0.0081737759
0.0081720677
0.0081703607
0.0081686496
0.00816693
0.0081651993
0.008163456
0.0081617002
0.0081599337
0.0081581595
0.008156382
0.0081546071
0.0081528409
0.0081510921
0.0081493673
0.0081476733
0.0081460194
0.0081444065
0.008142837
0.0081413148
0.0081398411
0.0081384151
0.0081370347
0.0081356965
0.0081343939
0.008133119
0.0081318618
0.0081306123
0.00812936
0.0081280946
0.0081268085
0.0081255002
0.00812417
0.0081228216
0.0081214623
0.0081201053
0.0081187624
0.0081174439
0.0081161598
0.0081149181
0.0081137264
0.0081125913
0.0081115199
0.0081105198
0.0081095998
0.0081087706
0.0081080464
0.0081074461
0.0081069943
0.0081067222
0.0081067022
0.0081069475
0.0081072856
0.0081109871
0.008112492
0.0081401727
0.0085045232
0.0084998691
0.0084952678
0.0084904594
0.0084859963
0.0084817099
0.0084776212
0.0084737437
0.0084700396
0.0084665013
0.0084631151
0.0084598126
0.0084566041
0.0084534091
0.0084502091
0.0084471164
0.0084438517
0.0084407192
0.0084374108
0.0084337256
0.0084306944
0.0084272384
0.008422864
0.0084204974
0.0084141004
0.0084126883
0.0084103728
0.0084008597
0.0084014229
0.0083928576
0.0083870603
0.0083821199
0.0082253659
0.0082156925
0.0082343262
0.0082215401
0.0082200457
0.0082153468
0.0082116741
0.0082075034
0.0082034958
0.0082002211
0.0081972612
0.008194581
0.008192093
0.0081897503
0.0081875245
0.0081853972
0.0081833565
0.0081813921
0.0081794933
0.00817765
0.0081758523
0.0081740907
0.0081723563
0.0081706411
0.0081689381
0.0081672413
0.0081655462
0.0081638492
0.0081621485
0.0081604433
0.0081587346
0.0081570241
0.0081553152
0.008153612
0.0081519195
0.0081502435
0.0081485896
0.0081469628
0.0081453691
0.0081438107
0.0081422897
0.0081408083
0.0081393674
0.0081379661
0.0081366022
0.0081352727
0.0081339723
0.0081326945
0.0081314319
0.0081301765
0.0081289207
0.0081276573
0.0081263809
0.0081250901
0.0081237852
0.0081224691
0.0081211477
0.0081198298
0.0081185244
0.00811724
0.0081159848
0.0081147661
0.0081135911
0.0081124664
0.008111399
0.0081103967
0.0081094683
0.0081086245
0.0081078783
0.0081072463
0.0081067508
0.0081064119
0.008106268
0.008106355
0.0081062948
0.0081061985
0.0081138126
0.008122384
0.0085031107
0.0084983666
0.0084936817
0.0084883063
0.0084836635
0.0084792015
0.0084749741
0.0084710093
0.0084672444
0.0084636826
0.0084602856
0.0084570003
0.0084538053
0.0084506475
0.0084475021
0.0084443917
0.0084411979
0.0084380145
0.008434718
0.0084312327
0.0084279506
0.0084244618
0.0084206159
0.008417476
0.0084130527
0.0084096858
0.0084058301
0.0083982099
0.0083954273
0.0083915859
0.0083873004
0.0083809408
0.0083759628
0.0083657696
0.0083586341
0.008351431
0.008349696
0.0082422333
0.0082371332
0.00823482
0.008234313
0.0082442155
0.0082299846
0.0082323919
0.0082283767
0.0082221099
0.0082169724
0.008212481
0.0082081716
0.0082040949
0.0082005032
0.0081972469
0.0081942799
0.0081915417
0.00818899
0.0081865939
0.0081843313
0.0081821831
0.0081801341
0.0081781701
0.0081762779
0.0081744455
0.0081726619
0.0081709169
0.0081692017
0.0081675085
0.0081658308
0.0081641634
0.0081625022
0.0081608447
0.0081591895
0.0081575365
0.0081558867
0.0081542422
0.008152606
0.0081509815
0.008149373
0.0081477846
0.0081462203
0.0081446839
0.0081431776
0.0081417033
0.0081402623
0.0081388548
0.0081374801
0.0081361362
0.0081348204
0.0081335284
0.008132255
0.0081309945
0.0081297408
0.0081284882
0.0081272314
0.0081259667
0.0081246928
0.00812341
0.0081221207
0.0081208293
0.008119542
0.0081182657
0.0081170072
0.0081157734
0.0081145706
0.0081134053
0.0081122837
0.0081112125
0.008110199
0.0081092514
0.0081083797
0.0081075955
0.0081069142
0.0081063551
0.0081059389
0.008105695
0.0081056773
0.0081057873
0.0081058891
0.0081097152
0.0081087489
0.0081348998
0.0085100129
0.0085014825
0.0084968674
0.0084924107
0.0084857909
0.0084810275
0.0084764296
0.008472076
0.0084680592
0.0084642534
0.0084607037
0.0084573381
0.0084541043
0.0084509628
0.008447867
0.0084447852
0.0084417072
0.0084385739
0.0084354065
0.0084321496
0.008428771
0.0084254048
0.0084218924
0.0084181735
0.008414633
0.0084105795
0.0084067806
0.0084026984
0.0083974445
0.0083933354
0.0083887772
0.0083837651
0.0083766298
0.0083712474
0.0083659073
0.0083594223
0.0083518275
0.008346375
0.008337026
0.0083211503
0.0083101487
0.0083010581
0.0082924826
0.0082800749
0.0082714222
0.0082621645
0.0082584939
0.0082502322
0.0082462047
0.008243658
0.0082432823
0.0082387775
0.0082340384
0.0082285179
0.0082229342
0.0082178528
0.0082130968
0.0082085581
0.008204311
0.0082004635
0.0081969546
0.0081937469
0.0081907971
0.0081880675
0.0081855262
0.0081831478
0.0081809089
0.0081787904
0.0081767744
0.0081748455
0.0081729895
0.0081711938
0.0081694472
0.0081677397
0.0081660629
0.0081644095
0.0081627736
0.0081611509
0.008159538
0.0081579329
0.0081563347
0.0081547436
0.0081531607
0.0081515879
0.0081500275
0.0081484825
0.0081469558
0.0081454504
0.0081439689
0.008142513
0.0081410841
0.0081396831
0.0081383099
0.0081369637
0.0081356428
0.0081343448
0.0081330661
0.0081318027
0.0081305501
0.0081293037
0.0081280591
0.0081268123
0.0081255609
0.0081243035
0.0081230405
0.0081217737
0.0081205064
0.0081192431
0.0081179892
0.0081167499
0.0081155309
0.0081143376
0.0081131756
0.0081120503
0.0081109678
0.0081099345
0.0081089576
0.0081080458
0.008107209
0.0081064597
0.0081058128
0.0081052853
0.0081048943
0.008104667
0.0081046142
0.0081043937
0.0081041651
0.008111549
0.0081194428
0.0085087186
0.0084985198
0.0084956494
0.0084927222
0.0084828218
0.0084780667
0.0084733161
0.0084688492
0.008464844
0.0084610234
0.0084575366
0.0084542536
0.0084511148
0.0084480696
0.0084450683
0.0084420741
0.0084390641
0.0084360009
0.0084328807
0.0084296731
0.0084263609
0.0084229873
0.0084194875
0.008415835
0.008412154
0.0084081875
0.0084042124
0.008400014
0.0083952931
0.0083908355
0.0083860706
0.0083810374
0.0083752541
0.0083695815
0.0083636976
0.0083572486
0.0083500745
0.0083416541
0.008332937
0.0083232707
0.0083138673
0.0083051314
0.0082967402
0.0082864045
0.0082783346
0.0082712039
0.0082650168
0.0082608213
0.0082548423
0.0082499948
0.0082457658
0.0082404278
0.0082351954
0.0082295485
0.0082239122
0.0082185366
0.0082134473
0.008208642
0.0082041768
0.0082000917
0.0081963612
0.0081929511
0.0081898271
0.0081869522
0.008184294
0.0081818232
0.0081795138
0.0081773431
0.0081752909
0.0081733394
0.0081714725
0.0081696761
0.0081679377
0.0081662465
0.0081645931
0.0081629698
0.0081613702
0.0081597892
0.0081582229
0.0081566689
0.0081551254
0.008153592
0.0081520689
0.0081505571
0.008149058
0.0081475737
0.008146106
0.008144657
0.0081432284
0.0081418216
0.0081404375
0.0081390766
0.0081377385
0.0081364225
0.0081351271
0.00813385
0.0081325887
0.0081313397
0.0081300995
0.0081288646
0.0081276315
0.0081263974
0.0081251602
0.008123919
0.008122674
0.0081214266
0.0081201791
0.0081189348
0.0081176979
0.0081164723
0.0081152627
0.0081140734
0.0081129089
0.008111774
0.0081106735
0.0081096129
0.0081085981
0.0081076361
0.0081067349
0.0081059038
0.0081051547
0.0081045009
0.0081039583
0.008103544
0.0081032966
0.0081031434
0.0081029637
0.0081056349
0.0081039085
0.0081301752
0.008512043
0.008498962
0.0084902244
0.0084907542
0.0084772637
0.0084752222
0.0084700106
0.0084653099
0.0084613289
0.0084575009
0.0084541542
0.0084510174
0.0084480267
0.0084451264
0.0084422574
0.0084393795
0.0084364668
0.0084334904
0.0084304382
0.0084272912
0.0084240371
0.0084206873
0.0084172127
0.0084135996
0.0084098862
0.0084059703
0.0084019454
0.0083977241
0.0083931941
0.0083886492
0.0083838717
0.0083788422
0.0083733907
0.0083677654
0.0083618404
0.0083555703
0.0083488814
0.0083416235
0.0083337558
0.0083254444
0.0083172125
0.008309237
0.0083014802
0.0082932896
0.0082858198
0.0082787771
0.0082721314
0.0082663917
0.0082602221
0.0082545366
0.0082490822
0.0082430118
0.0082370238
0.008230842
0.0082247446
0.0082189661
0.0082135145
0.0082084
0.0082036842
0.0081993717
0.0081954471
0.0081918683
0.0081886058
0.0081856189
0.0081828728
0.0081803357
0.0081779785
0.008175776
0.0081737058
0.0081717477
0.0081698842
0.0081680995
0.0081663802
0.0081647146
0.0081630926
0.0081615059
0.0081599476
0.0081584121
0.0081568952
0.0081553937
0.0081539056
0.0081524297
0.0081509655
0.0081495133
0.0081480738
0.0081466482
0.0081452375
0.0081438432
0.0081424664
0.0081411078
0.0081397681
0.0081384474
0.0081371453
0.008135861
0.0081345931
0.0081333399
0.008132099
0.0081308679
0.0081296436
0.0081284233
0.0081272045
0.0081259849
0.0081247629
0.0081235378
0.0081223095
0.0081210791
0.0081198481
0.0081186191
0.008117395
0.0081161789
0.0081149741
0.0081137841
0.0081126125
0.0081114629
0.008110339
0.008109245
0.0081081853
0.0081071651
0.00810619
0.008105266
0.0081044022
0.0081036057
0.0081028888
0.0081022569
0.0081017222
0.0081012808
0.0081006482
0.0080994668
0.0081040558
0.0081178622
0.008497026
0.0084711013
0.0084694566
0.0084663725
0.0084614297
0.0084575968
0.0084535831
0.0084505179
0.00844762
0.0084448421
0.0084421426
0.008439448
0.0084367183
0.008433928
0.0084310558
0.0084280875
0.0084250113
0.008421818
0.0084185082
0.0084150683
0.0084114899
0.0084077832
0.008403906
0.0083998878
0.008395691
0.0083912721
0.0083867335
0.008381991
0.0083770234
0.0083717562
0.0083662836
0.0083605548
0.0083545408
0.0083482042
0.0083415144
0.008334394
0.0083269667
0.0083196048
0.0083123994
0.0083053434
0.0082982664
0.0082914757
0.008284921
0.0082785908
0.0082723729
0.0082658748
0.0082593675
0.0082527791
0.0082458597
0.0082389647
0.0082320149
0.0082253123
0.0082190834
0.0082132457
0.0082077793
0.0082028009
0.0081982734
0.0081941858
0.0081904716
0.0081871075
0.0081840431
0.0081812409
0.0081786662
0.008176287
0.0081740756
0.0081720073
0.0081700605
0.0081682159
0.0081664566
0.0081647682
0.0081631382
0.008161556
0.0081600129
0.0081585014
0.0081570158
0.0081555514
0.0081541048
0.0081526733
0.0081512553
0.0081498499
0.0081484567
0.0081470758
0.0081457076
0.0081443528
0.0081430122
0.0081416862
0.0081403754
0.00813908
0.0081377998
0.0081365345
0.0081352833
0.0081340448
0.0081328176
0.0081315998
0.0081303892
0.0081291835
0.0081279805
0.0081267781
0.0081255745
0.0081243685
0.0081231593
0.0081219468
0.0081207317
0.008119515
0.0081182985
0.008117084
0.0081158739
0.0081146706
0.0081134765
0.0081122941
0.0081111259
0.0081099745
0.0081088425
0.0081077329
0.0081066486
0.0081055932
0.0081045699
0.0081035838
0.0081026391
0.0081017452
0.0081009102
0.0081001515
0.0080995087
0.008098993
0.0080986003
0.0081008312
0.0081016235
0.0081249911
0.0084561929
0.0084620772
0.0084543584
0.0084539779
0.0084491763
0.00844659
0.0084440737
0.008441579
0.0084391401
0.0084366644
0.0084341144
0.0084314693
0.0084287157
0.0084258439
0.0084228461
0.0084197174
0.0084164568
0.0084130582
0.0084095176
0.0084058366
0.0084019973
0.0083980083
0.0083938532
0.0083895142
0.0083850254
0.0083803532
0.0083754853
0.008370388
0.0083650939
0.0083595842
0.0083538516
0.0083478804
0.0083416616
0.0083352032
0.0083285849
0.0083220073
0.008315557
0.0083092408
0.00830308
0.0082970207
0.0082911209
0.0082851169
0.008278613
0.0082716158
0.008264323
0.0082566699
0.0082487386
0.0082408802
0.0082329692
0.008225502
0.0082188054
0.0082125717
0.0082067059
0.0082014725
0.0081967479
0.0081925438
0.0081887292
0.0081853065
0.0081822037
0.0081793806
0.0081768005
0.0081744265
0.0081722306
0.0081701862
0.0081682699
0.0081664611
0.0081647419
0.0081630969
0.0081615132
0.0081599797
0.0081584874
0.0081570288
0.0081555978
0.0081541895
0.0081528002
0.0081514271
0.0081500681
0.0081487219
0.0081473876
0.0081460648
0.0081447536
0.0081434541
0.0081421665
0.008140891
0.0081396277
0.0081383767
0.0081371376
0.0081359099
0.0081346929
0.0081334854
0.0081322861
0.0081310934
0.0081299055
0.0081287206
0.0081275368
0.0081263525
0.0081251662
0.0081239768
0.0081227837
0.0081215865
0.0081203856
0.0081191816
0.0081179755
0.0081167686
0.0081155622
0.0081143579
0.0081131572
0.0081119614
0.008110772
0.0081095904
0.0081084176
0.0081072548
0.0081061032
0.0081049636
0.0081038368
0.0081027228
0.0081016227
0.0081005361
0.0080994625
0.0080983969
0.0080973207
0.0080961692
0.0080948144
0.0080936917
0.0080908772
0.0080839796
0.0080912042
0.0084601381
0.0084479451
0.0084493395
0.0084445211
0.0084424542
0.0084404453
0.0084382898
0.0084361568
0.0084339389
0.0084315976
0.0084291169
0.0084264935
0.0084237252
0.0084208107
0.0084177499
0.0084145426
0.0084111892
0.0084076881
0.0084040414
0.0084002423
0.0083962934
0.0083921879
0.0083879194
0.0083834999
0.008378916
0.0083741622
0.0083692258
0.008364121
0.008358845
0.0083534033
0.008347799
0.0083420384
0.008336148
0.0083301655
0.0083242545
0.0083185207
0.0083129832
0.0083078385
0.0083025142
0.0082973732
0.0082918658
0.0082850273
0.0082775375
0.0082695371
0.0082607442
0.0082515562
0.0082429172
0.0082337836
0.0082251197
0.0082180147
0.0082114286
0.0082050663
0.0081996188
0.0081947285
0.008190488
0.0081866087
0.008183182
0.0081800836
0.0081772771
0.0081747256
0.0081723865
0.0081702327
0.0081682356
0.0081663704
0.0081646154
0.0081629517
0.0081613633
0.0081598369
0.0081583614
0.0081569276
0.008155528
0.0081541564
0.0081528081
0.0081514791
0.0081501664
0.0081488678
0.0081475816
0.0081463067
0.0081450423
0.008143788
0.0081425435
0.0081413087
0.0081400836
0.008138868
0.0081376616
0.0081364641
0.0081352748
0.0081340931
0.0081329179
0.0081317481
0.0081305822
0.0081294188
0.0081282565
0.0081270936
0.0081259288
0.0081247608
0.0081235888
0.0081224119
0.0081212298
0.0081200425
0.0081188502
0.0081176534
0.0081164526
0.0081152484
0.0081140417
0.0081128329
0.0081116224
0.0081104106
0.0081091974
0.0081079827
0.0081067658
0.008105546
0.0081043217
0.008103091
0.0081018503
0.0081005974
0.0080993242
0.0080980251
0.0080966852
0.0080952731
0.0080937191
0.0080919187
0.0080896555
0.0080861499
0.0080870169
0.0080792467
0.0080929653
0.0084302944
0.0084393897
0.0084377343
0.008436571
0.0084349989
0.0084332565
0.0084313203
0.008429208
0.0084269049
0.0084244178
0.0084217547
0.0084189232
0.0084159288
0.0084127748
0.0084094667
0.0084060057
0.0084023964
0.0083986379
0.0083947329
0.0083906803
0.0083864797
0.0083821367
0.0083776481
0.0083730138
0.0083682328
0.0083633174
0.0083582743
0.0083531145
0.0083478449
0.0083424678
0.0083370543
0.0083316502
0.0083263327
0.0083213345
0.0083164781
0.0083124179
0.0083078614
0.0083038424
0.0083000725
0.0082938491
0.0082857347
0.008277017
0.0082661667
0.0082545765
0.0082453901
0.0082341468
0.0082234779
0.0082166143
0.0082100244
0.0082027478
0.0081971431
0.0081921158
0.0081879865
0.0081840654
0.0081807131
0.0081776685
0.0081749199
0.0081724361
0.0081701616
0.0081680772
0.008166152
0.0081643595
0.008162677
0.008161085
0.0081595666
0.0081581089
0.0081567006
0.0081553328
0.0081539984
0.0081526914
0.0081514069
0.0081501413
0.0081488914
0.0081476549
0.00814643
0.0081452152
0.0081440095
0.0081428124
0.0081416231
0.0081404413
0.0081392668
0.008138099
0.0081369377
0.0081357824
0.0081346323
0.0081334869
0.0081323452
0.0081312061
0.0081300685
0.0081289312
0.0081277928
0.0081266522
0.0081255081
0.0081243595
0.0081232054
0.0081220451
0.0081208782
0.0081197043
0.0081185233
0.0081173351
0.0081161398
0.0081149373
0.0081137276
0.0081125103
0.0081112849
0.0081100506
0.0081088062
0.0081075501
0.0081062801
0.0081049935
0.0081036867
0.0081023554
0.0081009932
0.0080995943
0.0080981471
0.0080966423
0.0080950622
0.0080933805
0.0080915497
0.0080895251
0.008087209
0.0080843823
0.008082913
0.0080805521
0.0080736687
0.0080914789
0.0084230543
0.0084352408
0.0084330591
0.008431741
0.0084305364
0.0084288841
0.0084269901
0.0084248675
0.0084225171
0.0084199556
0.0084172018
0.0084142681
0.0084111633
0.0084078965
0.0084044731
0.0084008997
0.0083971801
0.0083933193
0.0083893194
0.0083851838
0.0083809173
0.008376523
0.0083720066
0.0083673746
0.0083626404
0.0083578127
0.0083529169
0.0083479744
0.0083429794
0.008337976
0.0083330184
0.0083281055
0.0083236903
0.0083191748
0.0083166536
0.0083139203
0.0083155084
0.0083095079
0.0083057758
0.0082930239
0.0082836744
0.0082716455
0.0082576956
0.0082426963
0.008227911
0.008220058
0.008214018
0.0082081697
0.008199446
0.0081939958
0.0081887837
0.0081850479
0.0081810317
0.0081778868
0.0081749518
0.0081723032
0.00816993
0.0081677486
0.008165762
0.0081639343
0.0081622371
0.0081606469
0.0081591429
0.0081577082
0.0081563302
0.0081549983
0.0081537041