/*--------------------------------*- C++ -*----------------------------------*\
| =========                 |                                                 |
| \\      /  F ield         | OpenFOAM: The Open Source CFD Toolbox           |
|  \\    /   O peration     | Version:  2412                                  |
|   \\  /    A nd           | Website:  www.openfoam.com                      |
|    \\/     M anipulation  |                                                 |
\*---------------------------------------------------------------------------*/
FoamFile
{
    version     2.0;
    format      ascii;
    arch        "LSB;label=32;scalar=64";
    class       surfaceScalarField;
    location    "15174";
    object      phi;
}
// * * * * * * * * * * * * * * * * * * * * * * * * * * * * * * * * * * * * * //

dimensions      [0 3 -1 0 0 0 0];

oriented        oriented;

internalField   nonuniform List<scalar> 
111846
(
7.1811556e-24
3.7888888e-24
5.1536376e-24
5.8215005e-24
3.8496068e-24
5.7927833e-24
3.817606e-24
7.2596569e-24
3.686764e-24
5.1348077e-24
5.6760002e-24
3.6495553e-24
-5.6585485e-24
5.7147216e-24
3.67663e-24
5.7757865e-24
3.7174894e-24
5.8421389e-24
3.7641285e-24
5.8915364e-24
3.8002093e-24
5.9082901e-24
3.8008523e-24
5.8548243e-24
3.7402298e-24
7.3667695e-24
3.6228625e-24
5.1175749e-24
3.7811608e-24
-6.0309745e-25
7.7817835e-26
5.3573212e-25
3.1676108e-24
5.6992501e-24
3.6176971e-24
5.7115494e-24
3.6226824e-24
-3.6349817e-24
5.7292744e-24
3.6318303e-24
5.7585922e-24
3.6473122e-24
5.8049168e-24
3.6711648e-24
5.8658286e-24
3.7032167e-24
5.9296626e-24
3.7363753e-24
5.9750362e-24
3.7554786e-24
5.9701984e-24
3.7450676e-24
5.9137595e-24
3.6793014e-24
7.4708832e-24
3.5604511e-24
5.0632036e-24
4.0580664e-24
-5.7438313e-25
3.3722775e-24
8.2691389e-26
3.3482003e-24
1.0189502e-25
3.3058078e-24
1.2085878e-25
-7.8466333e-26
3.2479397e-24
1.014936e-25
-4.3625504e-26
3.17287e-24
6.6857844e-26
8.2118623e-27
3.0873443e-24
1.9885039e-26
6.5640667e-26
2.9900419e-24
-2.2823008e-26
1.201254e-25
2.8897114e-24
-5.8919824e-26
1.5925028e-25
2.7916861e-24
-8.3810397e-26
1.8183571e-25
-7.6663048e-26
6.49169e-25
5.7029809e-24
3.6139964e-24
5.7261337e-24
3.5961622e-24
5.7485343e-24
3.5952966e-24
5.7696168e-24
3.6016e-24
5.7909624e-24
3.6104847e-24
5.8166655e-24
3.621609e-24
5.851985e-24
3.6358454e-24
5.9001097e-24
3.655092e-24
5.9578499e-24
3.6786351e-24
6.0099874e-24
3.7033412e-24
6.0279596e-24
3.7270954e-24
5.9805119e-24
3.7267491e-24
5.8319703e-24
3.7089927e-24
7.2072167e-24
3.6879573e-24
5.4931999e-24
4.3006343e-24
-5.9782307e-25
3.6308572e-24
9.5393883e-26
3.5968443e-24
1.1670421e-25
3.5521022e-24
1.466372e-25
3.4983995e-24
1.7456147e-25
3.4333631e-24
1.6652994e-25
3.3571236e-24
1.430974e-25
3.2677902e-24
1.0921844e-25
3.1672804e-24
7.7686772e-26
3.0575147e-24
5.0845904e-26
2.9423139e-24
3.1390416e-26
2.2845701e-26
5.6209066e-24
3.880839e-24
-5.5906876e-24
5.656873e-24
3.7344234e-24
5.6946574e-24
3.6318744e-24
5.7317257e-24
3.5769281e-24
5.7686813e-24
3.5592065e-24
5.8025954e-24
3.5613825e-24
5.8329529e-24
3.5712425e-24
5.8601895e-24
3.5832481e-24
5.8872214e-24
3.5945771e-24
5.9173286e-24
3.6057382e-24
5.9547711e-24
3.6176494e-24
6.0010021e-24
3.6324041e-24
6.0511017e-24
3.6532416e-24
6.0901848e-24
3.6880124e-24
6.0903209e-24
3.7266129e-24
6.0219626e-24
3.7773511e-24
5.867216e-24
3.8427038e-24
7.4395077e-24
3.9209083e-24
5.6704519e-24
4.6149298e-24
-6.4893165e-25
3.9280591e-24
8.9047557e-26
3.8952309e-24
1.2822209e-25
3.8349541e-24
1.7698107e-25
3.7654552e-24
2.1613606e-25
3.6951723e-24
2.4484431e-25
3.6206121e-24
2.4109015e-25
3.5403658e-24
2.2334372e-25
3.4496572e-24
1.9992707e-25
3.3489068e-24
1.7843713e-25
3.2374118e-24
1.6234092e-25
3.1134878e-24
1.5531446e-25
1.4887552e-25
4.7690764e-24
3.0054978e-24
-5.6789928e-24
5.2962279e-24
3.5325717e-24
-4.0597232e-24
5.5126899e-24
3.664377e-24
5.6277215e-24
3.6193918e-24
5.7054172e-24
3.5541787e-24
5.7662405e-24
3.5161049e-24
5.8177989e-24
3.5076481e-24
5.8624248e-24
3.5167566e-24
5.9010527e-24
3.5326146e-24
5.9351242e-24
3.5491766e-24
5.9657742e-24
3.5639271e-24
5.9957344e-24
3.5757779e-24
6.0280047e-24
3.5853792e-24
6.0660492e-24
3.5943597e-24
6.1120765e-24
3.6072142e-24
6.1665547e-24
3.6335341e-24
6.2215117e-24
3.6716559e-24
6.2756384e-24
3.7232244e-24
6.3540748e-24
3.7642674e-24
6.5430473e-24
3.7319358e-24
8.716048e-24
3.4974512e-24
5.5987301e-24
2.0272068e-24
4.5963091e-24
4.3214013e-24
2.2791565e-25
5.5183583e-24
1.1435797e-24
4.4806166e-24
3.8880999e-25
4.301437e-24
2.6822718e-25
4.1730648e-24
2.5659425e-25
4.0659368e-24
2.8410908e-25
3.9704893e-24
3.115836e-25
3.8865425e-24
3.2879108e-25
3.8047654e-24
3.2286729e-25
3.7203044e-24
3.0780465e-25
3.6299734e-24
2.9025807e-25
3.5335885e-24
2.7482204e-25
3.4341984e-24
2.6173108e-25
3.3403276e-24
2.4918523e-25
2.2463162e-25
7.1609232e-24
5.453623e-24
5.239872e-24
5.5004593e-24
3.6175406e-24
5.6184354e-24
3.5014157e-24
5.72555e-24
3.4470641e-24
5.8092778e-24
3.4323771e-24
5.874908e-24
3.4420178e-24
5.9286684e-24
3.4629962e-24
5.9742716e-24
3.4870114e-24
6.0139049e-24
3.5095433e-24
6.049126e-24
3.528706e-24
6.0813524e-24
3.5435515e-24
6.112928e-24
3.5538036e-24
6.1468437e-24
3.5604439e-24
6.1876767e-24
3.5663812e-24
6.243059e-24
3.5781519e-24
6.3168784e-24
3.5978365e-24
6.415573e-24
3.6245298e-24
6.5448115e-24
3.6350289e-24
6.6985596e-24
3.5781876e-24
6.8019553e-24
3.3940555e-24
5.8525426e-24
2.9766195e-24
6.9978841e-24
3.4509676e-24
5.847292e-24
4.8258354e-24
-7.3069115e-25
4.464764e-24
5.8898701e-25
4.8385185e-24
7.6982523e-25
4.6941103e-24
5.3321818e-25
4.5305244e-24
4.318131e-25
4.3849453e-24
4.0217334e-25
4.2613599e-24
4.0769448e-25
4.1558439e-24
4.1709955e-25
4.0666627e-24
4.1797226e-25
3.9806493e-24
4.088807e-25
3.8942696e-24
3.9418435e-25
3.8039054e-24
3.806223e-25
3.7088366e-24
3.6989083e-25
3.6117654e-24
3.5880228e-25
3.5183147e-24
3.4263589e-25
3.1209931e-25
4.9466659e-24
3.1026831e-24
5.3480832e-24
3.2161233e-24
5.5989383e-24
3.2505606e-24
5.7588022e-24
3.2872002e-24
5.8651367e-24
3.3260426e-24
5.9417688e-24
3.3653856e-24
6.0020272e-24
3.4027378e-24
6.0525488e-24
3.4364899e-24
6.096263e-24
3.4658291e-24
6.1349707e-24
3.4899982e-24
6.1699464e-24
3.5085758e-24
6.2024806e-24
3.5212694e-24
6.2348606e-24
3.5280639e-24
6.2710861e-24
3.5301557e-24
6.3180319e-24
3.5312061e-24
6.3828572e-24
3.5330113e-24
6.471309e-24
3.536078e-24
6.5781506e-24
3.5281872e-24
6.6700445e-24
3.4862937e-24
6.6681326e-24
3.3959675e-24
6.34102e-24
3.3037321e-24
6.3048265e-24
3.487161e-24
8.6274282e-24
3.5246903e-24
5.4698827e-24
2.6364928e-24
5.3461786e-24
4.69414e-24
-3.0582595e-26
6.0893709e-24
1.1597617e-24
4.8087028e-24
5.499769e-25
4.7885834e-24
6.0910637e-25
4.8790871e-24
6.7932153e-25
4.7999019e-24
6.124034e-25
4.6738226e-24
5.5789237e-25
4.543943e-24
5.3205297e-25
4.4276347e-24
5.2400276e-25
4.3265305e-24
5.1820375e-25
4.2360327e-24
5.0847011e-25
4.14972e-24
4.9519334e-25
4.0622499e-24
4.8165448e-25
3.9704627e-24
4.7240948e-25
3.8732211e-24
4.6713245e-25
3.7729553e-24
4.5906811e-25
3.6769286e-24
4.386625e-25
4.0044334e-25
5.1154901e-24
2.6846208e-24
5.462041e-24
2.8695724e-24
5.6893212e-24
3.0232804e-24
5.8395994e-24
3.136922e-24
5.9436084e-24
3.2220336e-24
6.0209139e-24
3.2880802e-24
6.082798e-24
3.3408537e-24
6.1351783e-24
3.3841096e-24
6.1811465e-24
3.4198608e-24
6.2219907e-24
3.4491541e-24
6.2588303e-24
3.4717362e-24
6.2928514e-24
3.4872484e-24
6.3251074e-24
3.495808e-24
6.3579836e-24
3.4972795e-24
6.3958949e-24
3.4932947e-24
6.4442236e-24
3.4846825e-24
6.5078482e-24
3.4724535e-24
6.582861e-24
3.4531743e-24
6.6492405e-24
3.4199143e-24
6.6721669e-24
3.373041e-24
6.6252933e-24
3.3506056e-24
6.7309005e-24
3.3815538e-24
6.9477768e-24
3.307814e-24
6.5474709e-24
3.0367987e-24
8.7611486e-24
3.1325009e-24
6.4169211e-24
2.1615671e-24
4.5868944e-24
1.7245085e-24
5.6746222e-24
4.2889535e-24
-6.4270376e-25
6.1556173e-24
1.0546258e-24
5.1956246e-24
9.2941015e-25
5.3815063e-24
9.7387992e-25
5.1599915e-24
7.714917e-25
5.0408129e-24
7.2828495e-25
4.9917617e-24
7.2837277e-25
4.9049841e-24
6.9918095e-25
4.796365e-24
6.6651147e-25
4.6850833e-24
6.4333469e-25
4.5820586e-24
6.2702749e-25
4.4885048e-24
6.117575e-25
4.400395e-24
5.965799e-25
4.3141533e-24
5.8143503e-25
4.2255781e-24
5.702297e-25
4.1314819e-24
5.6650569e-25
4.028931e-24
5.6968336e-25
3.9186736e-24
5.6932547e-25
3.8138291e-24
5.4350698e-25
4.7109899e-25
5.7377387e-24
2.72811e-24
5.7758677e-24
2.8314433e-24
5.8658237e-24
2.9333244e-24
5.9592441e-24
3.0435017e-24
6.0409539e-24
3.1403238e-24
6.1101142e-24
3.2189198e-24
6.1696551e-24
3.2813129e-24
6.2216262e-24
3.3321384e-24
6.2678444e-24
3.3736426e-24
6.3093294e-24
3.407669e-24
6.3471015e-24
3.4339642e-24
6.3816566e-24
3.4526932e-24
6.4139901e-24
3.4634744e-24
6.4450947e-24
3.466175e-24
6.4772181e-24
3.4611713e-24
6.5132904e-24
3.4486103e-24
6.5563221e-24
3.4294217e-24
6.606309e-24
3.4031874e-24
6.6568161e-24
3.3694072e-24
6.6988533e-24
3.3310039e-24
6.7429648e-24
3.3064941e-24
6.8439154e-24
3.2806033e-24
6.9440888e-24
3.2076406e-24
6.9051235e-24
3.075764e-24
7.0927911e-24
2.9448333e-24
6.7046576e-24
2.5497006e-24
5.9403206e-24
2.4888454e-24
8.5363704e-24
3.0785724e-24
6.8231668e-24
2.333684e-24
6.0858268e-24
1.3768576e-24
6.0676207e-24
1.6303984e-24
5.9950023e-24
1.673414e-24
5.8586706e-24
1.6651331e-24
5.7410997e-24
1.7484822e-24
5.7714178e-24
1.9164636e-24
5.7373543e-24
1.9138978e-24
5.6661357e-24
1.8883864e-24
5.6084366e-24
1.9218982e-24
5.637524e-24
2.0048776e-24
5.6195522e-24
1.9876241e-24
5.5489394e-24
1.9747614e-24
5.4341096e-24
2.0769722e-24
5.7285765e-24
2.4206429e-24
5.9994927e-24
2.2151683e-24
6.6188593e-24
1.3329765e-24
5.2841229e-24
6.9203266e-25
5.4563344e-24
8.8241431e-25
5.4302624e-24
9.5548215e-25
5.4420113e-24
9.6213097e-25
5.3241853e-24
8.8931775e-25
5.2088868e-24
8.4358347e-25
5.1176765e-24
8.19583e-25
5.0238461e-24
7.9301141e-25
4.9253047e-24
7.6505281e-25
4.827987e-24
7.4065241e-25
4.7354956e-24
7.1951891e-25
4.6470724e-24
7.0018071e-25
4.5612549e-24
6.8239737e-25
4.4751662e-24
6.6752376e-25
4.3863524e-24
6.590435e-25
4.2915147e-24
6.6134338e-25
4.1847909e-24
6.7640715e-25
4.0545712e-24
6.9954516e-25
3.8807715e-24
7.173067e-25
6.7637959e-25
5.98951e-24
2.7359947e-24
5.9814344e-24
2.8395189e-24
6.0199956e-24
2.8947633e-24
6.0798075e-24
2.9836898e-24
6.1436464e-24
3.0764848e-24
6.2044481e-24
3.1581182e-24
6.25996e-24
3.225801e-24
6.3101565e-24
3.2819418e-24
6.3553332e-24
3.328466e-24
6.3963602e-24
3.366642e-24
6.4337409e-24
3.3965835e-24
6.4681023e-24
3.4183318e-24
6.5000661e-24
3.4315106e-24
6.5299951e-24
3.436246e-24
6.5590676e-24
3.4320988e-24
6.5882781e-24
3.4193998e-24
6.6193952e-24
3.3983046e-24
6.6533917e-24
3.3691909e-24
6.6898474e-24
3.3329515e-24
6.7290803e-24
3.291771e-24
6.7819391e-24
3.2536353e-24
6.8560324e-24
3.20651e-24
6.9233913e-24
3.1402818e-24
6.9513313e-24
3.047824e-24
6.9817972e-24
2.9143674e-24
6.8006889e-24
2.7308089e-24
6.6154151e-24
2.6741192e-24
6.9582084e-24
2.7357791e-24
6.9238048e-24
2.3680875e-24
6.3901383e-24
1.9105242e-24
6.1561911e-24
1.8643456e-24
5.9719879e-24
1.8576172e-24
5.7830887e-24
1.8540322e-24
5.6421761e-24
1.8893948e-24
5.6095746e-24
1.9490652e-24
5.5725046e-24
1.9509678e-24
5.5255288e-24
1.9353621e-24
5.5069199e-24
1.9405071e-24
5.5511145e-24
1.960683e-24
5.5862571e-24
1.9524815e-24
5.6080441e-24
1.9529744e-24
5.6794564e-24
2.0055599e-24
6.0121211e-24
2.0879782e-24
6.3169767e-24
1.9103127e-24
6.2153358e-24
1.4346173e-24
5.8383224e-24
1.0690461e-24
5.6984313e-24
1.0223053e-24
5.6126148e-24
1.0412987e-24
5.5462787e-24
1.028467e-24
5.4469366e-24
9.8865984e-25
5.3426916e-24
9.4782843e-25
5.2471085e-24
9.1516613e-25
5.1553535e-24
8.8476641e-25
5.0646598e-24
8.5574648e-25
4.9757199e-24
8.295923e-25
4.8891388e-24
8.0610006e-25
4.8039789e-24
7.8534057e-25
4.7191993e-24
7.67177e-25
4.6335718e-24
7.5315128e-25
4.5465479e-24
7.460674e-25
4.4577679e-24
7.5012338e-25
4.3667077e-24
7.674673e-25
4.2737259e-24
7.92527e-25
4.183255e-24
8.0777762e-25
1.5978648e-24
5.9635884e-24
2.0537161e-24
6.0585523e-24
2.744555e-24
6.1250821e-24
2.8282335e-24
6.185398e-24
2.9233738e-24
6.2440206e-24
3.0178622e-24
6.2999816e-24
3.1021572e-24
6.3518448e-24
3.1739379e-24
6.3994315e-24
3.2343551e-24
6.4425866e-24
3.2853108e-24
6.4820122e-24
3.3272164e-24
6.5180479e-24
3.3605478e-24
6.551336e-24
3.3850438e-24
6.5822122e-24
3.4006343e-24
6.6111078e-24
3.4073504e-24
6.6381863e-24
3.4050203e-24
6.6639874e-24
3.3935987e-24
6.6892169e-24
3.3730751e-24
6.7141833e-24
3.3442245e-24
6.7401638e-24
3.3069709e-24
6.7685292e-24
3.2634057e-24
6.8058916e-24
3.2162728e-24
6.8510447e-24
3.1613569e-24
6.8945111e-24
3.0968154e-24
6.9237497e-24
3.0185854e-24
6.9244424e-24
2.9136748e-24
6.8532107e-24
2.8020405e-24
6.8000198e-24
2.7273102e-24
6.8771659e-24
2.658633e-24
6.7941841e-24
2.4510693e-24
6.4896968e-24
2.2150115e-24
6.240772e-24
2.1132704e-24
6.0333131e-24
2.0650762e-24
5.8523477e-24
2.0349975e-24
5.718662e-24
2.0230805e-24
5.6489926e-24
2.0187346e-24
5.6029916e-24
1.9969688e-24
5.5712433e-24
1.9671104e-24
5.5679347e-24
1.9438157e-24
5.6031963e-24
1.9254214e-24
5.6543527e-24
1.9013251e-24
5.7243297e-24
1.8829974e-24
5.8496572e-24
1.8802324e-24
6.0761074e-24
1.861528e-24
6.259595e-24
1.726825e-24
6.219209e-24
1.4750034e-24
6.0216649e-24
1.2665902e-24
5.8619757e-24
1.1819945e-24
5.7500357e-24
1.1532387e-24
5.657325e-24
1.1211777e-24
5.5636718e-24
1.082313e-24
5.4699933e-24
1.0415069e-24
5.3805265e-24
1.004633e-24
5.2941369e-24
9.7115602e-25
5.2092333e-24
9.406501e-25
5.1253421e-24
9.1348347e-25
5.0418764e-24
8.8956577e-25
4.9583457e-24
8.6887123e-25
4.8740604e-24
8.5146233e-25
4.7890369e-24
8.3817477e-25
4.703728e-24
8.313763e-25
4.6204064e-24
8.3344501e-25
4.5441908e-24
8.4368292e-25
4.4863226e-24
8.5039518e-25
4.4712467e-24
8.2285352e-25
5.3866405e-24
6.8247098e-25
4.3106489e-25
6.5325084e-24
2.3600973e-24
6.0415653e-24
2.5446592e-24
6.144163e-24
2.6419572e-24
6.2224563e-24
2.7499403e-24
6.2863623e-24
2.8594678e-24
6.3432531e-24
2.9609713e-24
6.3957004e-24
3.0497099e-24
6.444058e-24
3.1255802e-24
6.4881793e-24
3.1902339e-24
6.5284258e-24
3.2450642e-24
6.5652803e-24
3.290362e-24
6.5992547e-24
3.3265734e-24
6.6307064e-24
3.353592e-24
6.6599432e-24
3.3713975e-24
6.6871735e-24
3.38012e-24
6.7126001e-24
3.3795937e-24
6.7363193e-24
3.3698796e-24
6.7582607e-24
3.3511337e-24
6.7789036e-24
3.3235815e-24
6.7982762e-24
3.2875983e-24
6.8176464e-24
3.2440355e-24
6.8397501e-24
3.1941692e-24
6.8639019e-24
3.137205e-24
6.8871588e-24
3.0735585e-24
6.9040494e-24
3.0016948e-24
6.9015751e-24
2.916149e-24
6.8745074e-24
2.8291082e-24
6.8521743e-24
2.7496433e-24
6.8491181e-24
2.6616892e-24
6.77073e-24
2.5294575e-24
6.5963228e-24
2.3894187e-24
6.4164652e-24
2.2931279e-24
6.2550763e-24
2.2264651e-24
6.1167826e-24
2.1732912e-24
6.0105773e-24
2.1292858e-24
5.9403912e-24
2.0889207e-24
5.8928818e-24
2.0444781e-24
5.8619388e-24
1.9980534e-24
5.8515831e-24
1.9541714e-24
5.8644104e-24
1.9125942e-24
5.8951164e-24
1.870619e-24
5.9466216e-24
1.8314923e-24
6.0317266e-24
1.7951274e-24
6.1487425e-24
1.7445121e-24
6.2290001e-24
1.6465675e-24
6.1982346e-24
1.5057689e-24
6.0834135e-24
1.3814112e-24
5.961071e-24
1.3043371e-24
5.8584562e-24
1.2558535e-24
5.7680358e-24
1.2115981e-24
5.6822631e-24
1.1680858e-24
5.59813e-24
1.12564e-24
5.5158695e-24
1.0868934e-24
5.4348169e-24
1.0522086e-24
5.3541337e-24
1.0213334e-24
5.2733319e-24
9.9428527e-25
5.1919151e-24
9.7098255e-25
5.1095489e-24
9.5123736e-25
5.0261169e-24
9.3489437e-25
4.9413311e-24
9.2296054e-25
4.8562025e-24
9.1650489e-25
4.7719811e-24
9.1766645e-25
4.6901479e-24
9.2551609e-25
4.6093068e-24
9.3123626e-25
4.5167679e-24
9.1539246e-25
4.3315697e-24
8.6766912e-25
8.354349e-25
5.6972181e-24
-5.7712258e-24
5.7890414e-24
1.3251648e-24
6.0756399e-24
2.2580606e-24
6.2304191e-24
2.487178e-24
6.3231663e-24
2.6571931e-24
6.3889523e-24
2.7936818e-24
6.4432108e-24
2.9067129e-24
6.4914754e-24
3.0014453e-24
6.5354223e-24
3.0816333e-24
6.5753699e-24
3.1502862e-24
6.6120552e-24
3.208379e-24
6.6457848e-24
3.2566324e-24
6.6769894e-24
3.2953687e-24
6.705998e-24
3.3245835e-24
6.7330459e-24
3.3443497e-24
6.7582773e-24
3.3548886e-24
6.781742e-24
3.356129e-24
6.8034461e-24
3.3481755e-24
6.8232539e-24
3.3313259e-24
6.8410927e-24
3.3057428e-24
6.8569738e-24
3.2717171e-24
6.8712651e-24
3.2297443e-24
6.8845938e-24
3.1808404e-24
6.8967112e-24
3.1250877e-24
6.9070177e-24
3.0632519e-24
6.9133991e-24
2.9953135e-24
6.9094466e-24
2.9201015e-24
6.8958268e-24
2.842728e-24
6.8804375e-24
2.7650326e-24
6.8604433e-24
2.6816834e-24
6.8051249e-24
2.5847758e-24
6.7086278e-24
2.4859158e-24
6.6006169e-24
2.4011388e-24
6.4981422e-24
2.3289399e-24
6.407303e-24
2.2641303e-24
6.3328193e-24
2.2037695e-24
6.2756719e-24
2.1460681e-24
6.2314122e-24
2.0887378e-24
6.1973669e-24
2.0320987e-24
6.1743706e-24
1.9771677e-24
6.1631656e-24
1.9237992e-24
6.1627633e-24
1.8710213e-24
6.1749092e-24
1.8193464e-24
6.2022902e-24
1.7677464e-24
6.2375052e-24
1.7092971e-24
6.2505191e-24
1.6335536e-24
6.21237e-24
1.543918e-24
6.1335557e-24
1.4602255e-24
6.0438669e-24
1.3940259e-24
5.9595955e-24
1.3401248e-24
5.8800802e-24
1.2911134e-24
5.8031311e-24
1.2450349e-24
5.7267058e-24
1.2020653e-24
5.6503119e-24
1.1632872e-24
5.5736571e-24
1.1288635e-24
5.4963566e-24
1.0986338e-24
5.4182006e-24
1.0724413e-24
5.3388887e-24
1.0502944e-24
5.2582421e-24
1.0318839e-24
5.1757877e-24
1.0173487e-24
5.09165e-24
1.0070983e-24
5.0059691e-24
1.0021857e-24
4.9186853e-24
1.0049502e-24
4.8269861e-24
1.0172153e-24
4.719686e-24
1.0385363e-24
4.5671984e-24
1.06788e-24
4.317915e-24
1.1169525e-24
1.1541525e-24
8.1359933e-24
2.5121797e-24
-2.5314435e-24
8.1455145e-24
2.5780388e-24
-2.58756e-24
8.1186046e-24
2.6289094e-24
-2.6019995e-24
8.0692894e-24
2.6777872e-24
-2.628472e-24
8.0209565e-24
2.7204648e-24
-2.672132e-24
7.8926349e-24
2.7410765e-24
-2.6127549e-24
7.7443343e-24
2.8102443e-24
-2.6619437e-24
7.7505696e-24
2.9582168e-24
-2.9644521e-24
7.8145588e-24
3.0817981e-24
-3.1457873e-24
8.103949e-24
3.070779e-24
-3.3601691e-24
7.7762371e-24
2.7191278e-24
-2.3914159e-24
6.8406342e-24
2.5911182e-24
-1.6555154e-24
9.2557469e-24
3.2821055e-24
6.0744647e-24
3.1754658e-24
6.0883574e-24
6.8108359e-24
9.8872572e-25
6.1993671e-24
1.9366335e-24
6.2845322e-24
2.1728956e-24
6.3727556e-24
2.3989546e-24
6.4422682e-24
2.5876805e-24
6.4972432e-24
2.7387069e-24
6.5442753e-24
2.8596808e-24
6.5864063e-24
2.9593142e-24
6.6247719e-24
3.0432677e-24
6.6599296e-24
3.1151286e-24
6.6923809e-24
3.1759277e-24
6.7223689e-24
3.2266444e-24
6.7502866e-24
3.2674511e-24
6.7763846e-24
3.2984855e-24
6.8008297e-24
3.3199045e-24
6.8237076e-24
3.3320107e-24
6.845021e-24
3.3348156e-24
6.8646927e-24
3.3285038e-24
6.8825699e-24
3.3134487e-24
6.8985336e-24
3.289779e-24
6.912252e-24
3.2579988e-24
6.9236635e-24
3.2183328e-24
6.9329464e-24
3.1715575e-24
6.9396947e-24
3.1183394e-24
6.9437735e-24
3.0591731e-24
6.9442404e-24
2.9948466e-24
6.9389575e-24
2.9253844e-24
6.9284002e-24
2.8532852e-24
6.9143475e-24
2.7790853e-24
6.8939909e-24
2.70204e-24
6.8578664e-24
2.6209003e-24
6.8044559e-24
2.5393263e-24
6.7434827e-24
2.462112e-24
6.6825343e-24
2.3898883e-24
6.6255317e-24
2.321133e-24
6.57432e-24
2.2549813e-24
6.5292542e-24
2.1911339e-24
6.4892392e-24
2.1287528e-24
6.4535035e-24
2.0678343e-24
6.4220554e-24
2.0086158e-24
6.3953648e-24
1.9504898e-24
6.3730351e-24
1.893351e-24
6.3557232e-24
1.8366583e-24
6.34343e-24
1.7800395e-24
6.3318792e-24
1.720848e-24
6.3089453e-24
1.6564875e-24
6.2645795e-24
1.5882837e-24
6.2022572e-24
1.5225479e-24
6.1327814e-24
1.4635017e-24
6.0628706e-24
1.4100356e-24
5.9934555e-24
1.3605285e-24
5.923908e-24
1.3145824e-24
5.8533297e-24
1.2726436e-24
5.7817429e-24
1.2348741e-24
5.7089712e-24
1.2016352e-24
5.6350942e-24
1.1725108e-24
5.5597601e-24
1.1477755e-24
5.4829603e-24
1.1270942e-24
5.4043488e-24
1.1104954e-24
5.3238985e-24
1.097799e-24
5.2414125e-24
1.0895844e-24
5.1567029e-24
1.0868953e-24
5.069618e-24
1.0920351e-24
4.9789505e-24
1.1078828e-24
4.8814604e-24
1.1360264e-24
4.7754627e-24
1.1738777e-24
4.6742764e-24
1.2181389e-24
2.2829017e-24
8.0889324e-24
2.5228265e-24
8.0738944e-24
2.5930769e-24
8.0463357e-24
2.6564681e-24
8.0091962e-24
2.7149268e-24
7.9636575e-24
2.7660035e-24
7.8937555e-24
2.8109784e-24
7.831945e-24
2.8720549e-24
7.834553e-24
2.9556088e-24
7.8898966e-24
3.0264546e-24
7.9532365e-24
3.0074391e-24
7.7647341e-24
2.9076302e-24
7.4288772e-24
2.9269752e-24
7.5128596e-24
3.1981231e-24
7.3238474e-24
3.364478e-24
9.8764543e-24
3.5357505e-24
7.4453013e-24
2.5311482e-24
5.7132783e-24
1.8203747e-24
5.8047516e-24
7.1103158e-24
6.7919449e-25
6.4013402e-24
1.6977012e-24
6.4521627e-24
1.8858111e-24
6.4894692e-24
2.135589e-24
6.5292998e-24
2.359124e-24
6.5692136e-24
2.5477667e-24
6.6078194e-24
2.7001011e-24
6.6445448e-24
2.8229553e-24
6.6791366e-24
2.9247224e-24
6.7111701e-24
3.0112342e-24
6.7408765e-24
3.0854223e-24
6.7684024e-24
3.1484018e-24
6.7942181e-24
3.2008286e-24
6.8184667e-24
3.2432026e-24
6.8413188e-24
3.2756334e-24
6.862874e-24
3.2983492e-24
6.8831625e-24
3.3117222e-24
6.9021436e-24
3.3158345e-24
6.9197103e-24
3.3109372e-24
6.9356936e-24
3.2974654e-24
6.9498696e-24
3.275603e-24
6.9621245e-24
3.2457439e-24
6.9719618e-24
3.2084955e-24
6.9792728e-24
3.1642465e-24
6.9838506e-24
3.1137615e-24
6.9853548e-24
3.0576689e-24
6.9837168e-24
2.9964847e-24
6.977774e-24
2.9313272e-24
6.968019e-24
2.8630403e-24
6.9546757e-24
2.7924285e-24
6.9365972e-24
2.7201185e-24
6.9113971e-24
2.6461004e-24
6.8785958e-24
2.5721276e-24
6.8412348e-24
2.499473e-24
6.8022558e-24
2.4288673e-24
6.7632899e-24
2.3600988e-24
6.7250572e-24
2.293214e-24
6.6880123e-24
2.2281788e-24
6.6520942e-24
2.1646709e-24
6.6168595e-24
2.103069e-24
6.5827512e-24
2.0427241e-24
6.5496247e-24
1.9836164e-24
6.517544e-24
1.9254317e-24
6.4863965e-24
1.8678058e-24
6.456045e-24
1.810391e-24
6.424332e-24
1.752561e-24
6.3871243e-24
1.6936952e-24
6.3411805e-24
1.6342276e-24
6.2871341e-24
1.5765942e-24
6.2287249e-24
1.5219109e-24
6.1681724e-24
1.4705881e-24
6.1060534e-24
1.4226476e-24
6.0420985e-24
1.3785373e-24
5.9766037e-24
1.3381384e-24
5.9093111e-24
1.3021666e-24
5.8405365e-24
1.2704098e-24
5.7700779e-24
1.2429694e-24
5.6980692e-24
1.2197842e-24
5.6243067e-24
1.2008567e-24
5.5487131e-24
1.186089e-24
5.4708732e-24
1.1756389e-24
5.3907794e-24
1.1696782e-24
5.3084409e-24
1.1692338e-24
5.2239626e-24
1.1765134e-24
5.1373233e-24
1.1945221e-24
5.0502976e-24
1.2230521e-24
4.9740069e-24
1.2501684e-24
4.9553931e-24
1.2367527e-24
6.1718086e-24
1.0664862e-24
7.2492269e-25
8.078641e-24
2.5493206e-24
8.0494403e-24
2.6222775e-24
8.0166279e-24
2.6892805e-24
7.980143e-24
2.7514116e-24
7.9391565e-24
2.8069901e-24
7.8927615e-24
2.8573734e-24
7.8558194e-24
2.9089969e-24
7.8479226e-24
2.9635056e-24
7.8659717e-24
3.0084054e-24
7.862888e-24
3.0105228e-24
7.7712966e-24
2.9992217e-24
7.659953e-24
3.0383188e-24
7.6979883e-24
3.1600878e-24
7.7969755e-24
3.2654908e-24
8.1205964e-24
3.2121296e-24
7.8310063e-24
2.8207383e-24
7.0212758e-24
2.6301052e-24
9.6391084e-24
3.186919e-24
7.3031521e-24
2.3871977e-24
5.5959091e-24
1.7271273e-24
5.6560323e-24
6.251007e-24
8.4616171e-25
7.905277e-24
2.384656e-24
6.8326124e-24
1.7518591e-24
6.7377162e-24
1.7925974e-24
6.6859127e-24
1.9376147e-24
6.6696813e-24
2.1518205e-24
6.6737365e-24
2.3550687e-24
6.6908535e-24
2.5306497e-24
6.7149551e-24
2.6759995e-24
6.7414982e-24
2.7964122e-24
6.7678854e-24
2.8983353e-24
6.793058e-24
2.9860616e-24
6.816936e-24
3.0615442e-24
6.8394609e-24
3.1258769e-24
6.8608187e-24
3.1794708e-24
6.8811523e-24
3.2228689e-24
6.9005516e-24
3.2562341e-24
6.9190499e-24
3.2798509e-24
6.9366237e-24
3.2941484e-24
6.9531915e-24
3.2992666e-24
6.9686175e-24
3.2955112e-24
6.9827167e-24
3.2833662e-24
6.9952613e-24
3.2630585e-24
7.0059909e-24
3.2350143e-24
7.0146257e-24
3.1998606e-24
7.0208785e-24
3.1579938e-24
7.0246198e-24
3.1100202e-24
7.0254378e-24
3.0568509e-24
7.0231719e-24
2.9987506e-24
7.0176431e-24
2.936856e-24
7.0087004e-24
2.871983e-24
6.9964063e-24
2.8047226e-24
6.9807092e-24
2.7358157e-24
6.960779e-24
2.6660305e-24
6.936973e-24
2.5959336e-24
6.9099844e-24
2.5264616e-24
6.8809932e-24
2.4578585e-24
6.8506736e-24
2.3904184e-24
6.8193087e-24
2.3245789e-24
6.7873094e-24
2.2601781e-24
6.7546661e-24
2.1973143e-24
6.7216402e-24
2.1360948e-24
6.688306e-24
2.0760584e-24
6.6545304e-24
2.017392e-24
6.6203087e-24
1.9596533e-24
6.5856347e-24
1.9024799e-24
6.5500665e-24
1.8459592e-24
6.512808e-24
1.7898194e-24
6.4725955e-24
1.7339077e-24
6.4279222e-24
1.678901e-24
6.3792323e-24
1.6252841e-24
6.3273379e-24
1.5738053e-24
6.2728345e-24
1.5250915e-24
6.2159885e-24
1.4794936e-24
6.1570648e-24
1.4374611e-24
6.0959872e-24
1.3992159e-24
6.0331144e-24
1.3650394e-24
5.9684094e-24
1.3351149e-24
5.9019349e-24
1.3094438e-24
5.8336634e-24
1.2880557e-24
5.7634996e-24
1.2710205e-24
5.6912953e-24
1.2582934e-24
5.6168889e-24
1.2500452e-24
5.5401493e-24
1.2464178e-24
5.4609169e-24
1.2484662e-24
5.3788537e-24
1.2585767e-24
5.2926953e-24
1.2806805e-24
5.1963504e-24
1.319397e-24
5.0722846e-24
1.3742341e-24
4.8710705e-24
1.4379668e-24
4.4330487e-24
1.5045079e-24
1.4759931e-24
8.1292177e-24
2.5088023e-24
8.0918906e-24
2.5866477e-24
8.0534362e-24
2.660732e-24
8.0137103e-24
2.7290064e-24
7.9735438e-24
2.7915781e-24
7.9332598e-24
2.8472741e-24
7.8932687e-24
2.8973645e-24
7.8589565e-24
2.9433091e-24
7.8379315e-24
2.9845306e-24
7.8285389e-24
3.017798e-24
7.807723e-24
3.0313387e-24
7.764813e-24
3.0421317e-24
7.7335452e-24
3.0695865e-24
7.7706152e-24
3.1230178e-24
7.868526e-24
3.16758e-24
7.9758057e-24
3.10485e-24
7.8436414e-24
2.9529026e-24
7.5986851e-24
2.8750616e-24
7.8289007e-24
2.9567034e-24
7.5415225e-24
2.6745759e-24
6.6784755e-24
2.5901743e-24
9.101388e-24
3.2331198e-24
5.9756412e-24
3.154815e-24
5.9528778e-24
7.1259919e-24
-2.8194249e-25
6.5289856e-24
1.4431679e-24
7.0394944e-24
1.8741472e-24
6.9920592e-24
1.7992943e-24
6.9154607e-24
1.8691959e-24
6.846919e-24
2.0061564e-24
6.8098255e-24
2.1889139e-24
6.7971185e-24
2.3677757e-24
6.8012759e-24
2.5264923e-24
6.8148034e-24
2.662472e-24
6.832345e-24
2.7788707e-24
6.8507487e-24
2.8799316e-24
6.869105e-24
2.9677053e-24
6.8869936e-24
3.0436556e-24
6.9042659e-24
3.1086046e-24
6.9210339e-24
3.1627029e-24
6.937344e-24
3.2065587e-24
6.953208e-24
3.2403702e-24
6.9685952e-24
3.2644637e-24
6.9834311e-24
3.2793126e-24
6.997595e-24
3.2851028e-24
7.0109233e-24
3.2821829e-24
7.0232145e-24
3.271075e-24
7.0342345e-24
3.2520384e-24
7.0437263e-24
3.2255225e-24
7.0514205e-24
3.1921664e-24
7.0570464e-24
3.1523679e-24
7.0603444e-24
3.1067221e-24
7.0611858e-24
3.0560095e-24
7.0591632e-24
3.0007732e-24
7.054179e-24
2.9418401e-24
7.046398e-24
2.8797641e-24
7.0356602e-24
2.8154603e-24
7.0219044e-24
2.7495715e-24
7.0053223e-24
2.6826127e-24
6.9857911e-24
2.6154648e-24
6.9639071e-24
2.5483455e-24
6.9399236e-24
2.481842e-24
6.9141918e-24
2.4161503e-24
6.8870956e-24
2.3516751e-24
6.8586954e-24
2.2885783e-24
6.829239e-24
2.2267706e-24
6.7990203e-24
2.1663135e-24
6.767858e-24
2.1072207e-24
6.7359891e-24
2.0492609e-24
6.7032238e-24
1.9924185e-24
6.6693807e-24
1.936323e-24
6.6341628e-24
1.8811772e-24
6.597406e-24
1.8265762e-24
6.5582348e-24
1.7730788e-24
6.5164018e-24
1.720734e-24
6.4718782e-24
1.6698077e-24
6.4245194e-24
1.621164e-24
6.3746743e-24
1.5749367e-24
6.3225873e-24
1.5315806e-24
6.2681914e-24
1.4918569e-24
6.2116812e-24
1.4557261e-24
6.1531968e-24
1.4235238e-24
6.092828e-24
1.3954836e-24
6.0306117e-24
1.3716602e-24
5.9665274e-24
1.35214e-24
5.9004972e-24
1.3370507e-24
5.8323969e-24
1.3263936e-24
5.7620772e-24
1.320365e-24
5.6893525e-24
1.3191425e-24
5.6141655e-24
1.3236532e-24
5.5363303e-24
1.3364119e-24
5.454476e-24
1.3625348e-24
5.3643438e-24
1.4095292e-24
5.2547113e-24
1.4838667e-24
5.1053843e-24
1.5872938e-24
4.8885566e-24
1.7213356e-24
2.9710026e-24
8.1878066e-24
2.5620388e-24
8.1319775e-24
2.6424768e-24
8.0760357e-24
2.7166737e-24
8.0237251e-24
2.781317e-24
7.9771153e-24
2.838188e-24
7.9324446e-24
2.8919447e-24
7.8918346e-24
2.9379745e-24
7.8559528e-24
2.979191e-24
7.8259382e-24
3.0145452e-24
7.8019122e-24
3.0418239e-24
7.7754692e-24
3.0577817e-24
7.7481387e-24
3.0694622e-24
7.7348007e-24
3.0829245e-24
7.7567987e-24
3.1010198e-24
7.8126331e-24
3.1117457e-24
7.8474274e-24
3.0700557e-24
7.7959678e-24
3.0043622e-24
7.7137532e-24
2.9572761e-24
7.7332365e-24
2.9372201e-24
7.5662881e-24
2.8415243e-24
7.2956568e-24
2.8608056e-24
7.4213924e-24
3.1073842e-24
7.2960213e-24
3.2801861e-24
9.8600739e-24
3.3888252e-24
7.4736615e-24
2.3126952e-24
5.662203e-24
1.6572655e-24
5.5338934e-24
6.1959353e-24
-5.8510115e-25
8.2125958e-24
1.4388481e-24
6.8035925e-24
1.1270607e-24
6.8473235e-24
1.3994369e-24
7.0417244e-24
1.6797463e-24
7.0509558e-24
1.7900629e-24
7.0076169e-24
1.9125349e-24
6.9542506e-24
2.0595226e-24
6.9189152e-24
2.2242493e-24
6.9026101e-24
2.3840808e-24
6.9003461e-24
2.5287563e-24
6.9060814e-24
2.6567366e-24
6.915486e-24
2.769466e-24
6.9265e-24
2.8689176e-24
6.9380103e-24
2.956195e-24
6.9497752e-24
3.0318908e-24
6.9618283e-24
3.0965514e-24
6.9740323e-24
3.150499e-24
6.9863484e-24
3.1942426e-24
6.9987169e-24
3.2280017e-24
7.0110482e-24
3.2521324e-24
7.0232197e-24
3.267141e-24
7.035074e-24
3.2732485e-24
7.0464206e-24
3.2708363e-24
7.0570411e-24
3.2604544e-24
7.0666938e-24
3.2423858e-24
7.0751215e-24
3.2170947e-24
7.0820616e-24
3.1852263e-24
7.0872548e-24
3.1471747e-24
7.0904564e-24
3.1035205e-24
7.0914481e-24
3.0550178e-24
7.0900491e-24
3.0021722e-24
7.0862342e-24
2.945655e-24
7.0797211e-24
2.8862771e-24
7.0706081e-24
2.8245733e-24
7.0589908e-24
2.7611889e-24
7.0447566e-24
2.6968469e-24
7.0282739e-24
2.6319474e-24
7.0097676e-24
2.5668519e-24
6.9892122e-24
2.5023974e-24
6.9668787e-24
2.4384838e-24
6.9430774e-24
2.3754764e-24
6.9179953e-24
2.3136603e-24
6.891733e-24
2.2530329e-24
6.8644168e-24
2.1936297e-24
6.8361148e-24
2.1355228e-24
6.8068274e-24
2.0785482e-24
6.7766149e-24
2.022631e-24
6.7451426e-24
1.9677953e-24
6.7123948e-24
1.913925e-24
6.6777996e-24
1.8611714e-24
6.6414215e-24
1.8094569e-24
6.6029252e-24
1.7592304e-24
6.5620302e-24
1.7107027e-24
6.5188676e-24
1.6643266e-24
6.4733652e-24
1.6204391e-24
6.4254977e-24
1.579448e-24
6.3755653e-24
1.5417893e-24
6.3235895e-24
1.5077019e-24
6.2696731e-24
1.4774402e-24
6.2138856e-24
1.4512712e-24
6.1562581e-24
1.4292877e-24