/*--------------------------------*- C++ -*----------------------------------*\
| =========                 |                                                 |
| \\      /  F ield         | OpenFOAM: The Open Source CFD Toolbox           |
|  \\    /   O peration     | Version:  2412                                  |
|   \\  /    A nd           | Website:  www.openfoam.com                      |
|    \\/     M anipulation  |                                                 |
\*---------------------------------------------------------------------------*/
FoamFile
{
    version     2.0;
    format      ascii;
    arch        "LSB;label=32;scalar=64";
    class       volVectorField;
    location    "15174";
    object      U;
}
// * * * * * * * * * * * * * * * * * * * * * * * * * * * * * * * * * * * * * //

dimensions      [0 1 -1 0 0 0 0];

internalField   nonuniform List<vector> 
57691
(
(8.0465791e-07 5.3374208e-07 2.6223066e-25)
(8.0009875e-07 5.292764e-07 -2.6296844e-24)
(8.2629403e-07 5.4059452e-07 -2.9270791e-26)
(8.2294486e-07 5.3808845e-07 -1.5888669e-26)
(8.180211e-07 5.3494768e-07 -2.1352937e-25)
(8.1480874e-07 5.2967263e-07 2.04379e-24)
(8.4659104e-07 5.4474981e-07 5.0496012e-27)
(8.4580878e-07 5.4490891e-07 -3.6635333e-26)
(8.4483549e-07 5.447605e-07 -2.4722066e-26)
(8.4360763e-07 5.4410144e-07 1.5605861e-26)
(8.4202439e-07 5.4277006e-07 9.3785359e-26)
(8.4002548e-07 5.4070598e-07 6.1469962e-26)
(8.3779691e-07 5.379676e-07 -7.9918016e-27)
(8.3405383e-07 5.3429242e-07 -3.6375591e-25)
(8.3196584e-07 5.2842338e-07 7.9137898e-25)
(5.075754e-07 1.3027324e-08 2.5830587e-24)
(4.9544008e-07 5.7012784e-09 8.5606902e-26)
(8.5390003e-07 5.43632e-07 2.747224e-28)
(8.5532989e-07 5.4408867e-07 2.2601625e-28)
(8.5643231e-07 5.4458494e-07 -5.2570923e-29)
(8.5722628e-07 5.4495224e-07 6.4504884e-27)
(8.5771726e-07 5.4501766e-07 4.4816003e-27)
(8.57884e-07 5.446146e-07 2.4316543e-26)
(8.5768134e-07 5.4360653e-07 -7.8298109e-26)
(8.5708683e-07 5.4191479e-07 1.488083e-26)
(8.5622536e-07 5.3949305e-07 8.5865938e-27)
(8.5524828e-07 5.3620094e-07 -2.1008462e-26)
(8.5269729e-07 5.319509e-07 1.8925765e-25)
(8.5236664e-07 5.2532142e-07 1.3880457e-24)
(5.4188296e-07 2.6823461e-08 2.0451554e-24)
(5.3154493e-07 2.2081165e-08 1.2798235e-25)
(5.2238127e-07 1.7614981e-08 -4.7970685e-26)
(5.1062002e-07 1.2043832e-08 4.8262918e-26)
(4.9800747e-07 6.3296393e-09 -2.4795553e-26)
(4.8453289e-07 7.4440033e-10 -1.1748392e-26)
(4.7016053e-07 -4.2683223e-09 1.3920913e-26)
(4.5504711e-07 -8.4260017e-09 1.2153037e-27)
(4.3895692e-07 -1.1574805e-08 3.375402e-26)
(4.2272968e-07 -1.3485761e-08 -6.0599248e-26)
(4.0574456e-07 -1.3281226e-08 -3.1059315e-25)
(8.5237241e-07 5.4002424e-07 3.8398269e-27)
(8.5674633e-07 5.4034923e-07 9.5032395e-28)
(8.6053868e-07 5.4104812e-07 -6.8802901e-28)
(8.6376834e-07 5.4193493e-07 1.6397043e-30)
(8.6648393e-07 5.4282693e-07 -6.9148435e-28)
(8.6874221e-07 5.4354907e-07 -8.171933e-28)
(8.7059145e-07 5.4393733e-07 3.8359709e-27)
(8.7206202e-07 5.4384253e-07 -1.8794972e-26)
(8.7316875e-07 5.4313722e-07 -2.6774631e-27)
(8.7393715e-07 5.4172354e-07 2.7748868e-26)
(8.7444674e-07 5.3951995e-07 -4.0196064e-26)
(8.7484674e-07 5.3636846e-07 1.9604678e-26)
(8.7531353e-07 5.321169e-07 1.3015795e-27)
(8.7515115e-07 5.2661372e-07 -3.9552409e-25)
(8.7569697e-07 5.1647382e-07 -9.9284304e-26)
(5.7714864e-07 3.9177993e-08 3.7166913e-25)
(5.6686335e-07 3.5068815e-08 -7.6015603e-26)
(5.5859777e-07 3.2675303e-08 4.3484989e-26)
(5.4831822e-07 2.844735e-08 -5.24106e-27)
(5.3697647e-07 2.3747944e-08 3.1887921e-27)
(5.2477145e-07 1.8875402e-08 -5.4013046e-27)
(5.1176817e-07 1.4097715e-08 -5.7618774e-27)
(4.9799889e-07 9.7567305e-09 1.6743141e-27)
(4.8356672e-07 6.0810146e-09 2.3262859e-27)
(4.6831362e-07 3.1948555e-09 -4.2048517e-27)
(4.5339354e-07 1.196156e-09 -3.3577902e-26)
(4.3821849e-07 1.5936899e-10 2.1063184e-25)
(8.3030354e-07 5.3593773e-07 1.0512069e-25)
(8.3966066e-07 5.3417888e-07 -3.9968742e-27)
(8.4816799e-07 5.3371941e-07 4.5953434e-28)
(8.5567301e-07 5.3415919e-07 8.8173002e-27)
(8.6222234e-07 5.3520683e-07 -7.8843235e-28)
(8.6788192e-07 5.3660991e-07 4.3469224e-28)
(8.7274219e-07 5.3814145e-07 -2.6345939e-28)
(8.7690538e-07 5.3960161e-07 4.9794982e-28)
(8.8047145e-07 5.4081347e-07 -1.2878324e-27)
(8.835301e-07 5.4161998e-07 1.1527639e-27)
(8.8615559e-07 5.4188202e-07 -1.2628661e-26)
(8.8840884e-07 5.414768e-07 8.7574747e-27)
(8.9034952e-07 5.4029398e-07 -2.677202e-27)
(8.9204144e-07 5.3822189e-07 1.8097095e-26)
(8.9356361e-07 5.3510686e-07 3.3901544e-26)
(8.9500929e-07 5.3074663e-07 -3.3172511e-26)
(8.9652296e-07 5.2489386e-07 5.4419499e-26)
(8.9631298e-07 5.1669195e-07 -8.0645079e-26)
(8.9626665e-07 5.0632927e-07 -1.2713028e-24)
(6.1348663e-07 5.0821301e-08 5.8811152e-25)
(6.029092e-07 4.7417583e-08 1.1951505e-25)
(5.947767e-07 4.5921006e-08 -2.7102734e-26)
(5.8498278e-07 4.3042044e-08 -5.335504e-26)
(5.7456617e-07 3.9424526e-08 1.5476192e-27)
(5.6331361e-07 3.5384917e-08 2.2234712e-26)
(5.5130072e-07 3.1174371e-08 8.7793756e-28)
(5.3862321e-07 2.7041116e-08 -4.473316e-27)
(5.2531517e-07 2.3242156e-08 5.5212238e-27)
(5.1144616e-07 1.994545e-08 -1.7180039e-26)
(4.9688479e-07 1.7250403e-08 2.4030649e-26)
(4.8279873e-07 1.5128556e-08 1.497809e-26)
(4.6861992e-07 1.3074503e-08 -1.8941421e-25)
(7.9703397e-07 5.3444874e-07 3.4342423e-25)
(8.1159243e-07 5.2890909e-07 -2.4919061e-26)
(8.259851e-07 5.2512861e-07 -8.2230214e-26)
(8.3920472e-07 5.238154e-07 -2.3058375e-26)
(8.5071204e-07 5.244142e-07 -1.0745896e-26)
(8.6052672e-07 5.2601198e-07 -9.7488177e-27)
(8.689585e-07 5.2815081e-07 -1.571992e-27)
(8.7620552e-07 5.3053114e-07 4.9568977e-28)
(8.8244038e-07 5.3291197e-07 5.0064008e-29)
(8.8782209e-07 5.3509518e-07 -1.1345652e-28)
(8.9249138e-07 5.3691297e-07 4.1341309e-28)
(8.9657155e-07 5.3822018e-07 -1.6971628e-27)
(9.0016885e-07 5.3888864e-07 2.8949859e-27)
(9.0337512e-07 5.3880253e-07 -3.9330972e-27)
(9.062736e-07 5.3785139e-07 -8.7795505e-27)
(9.0893307e-07 5.3591689e-07 -2.3335733e-26)
(9.1141279e-07 5.328547e-07 -6.8648447e-28)
(9.1375781e-07 5.2848704e-07 -8.7237383e-27)
(9.1605386e-07 5.2258761e-07 1.6175202e-26)
(9.1821898e-07 5.1483707e-07 -1.7339354e-26)
(9.1938828e-07 5.0530157e-07 -3.8399808e-25)
(9.2290402e-07 4.9083406e-07 3.6830251e-25)
(9.2605379e-07 4.7501765e-07 -7.3557198e-25)
(6.7053441e-07 7.4956534e-08 3.6599273e-24)
(6.5408514e-07 6.8485105e-08 5.46314e-25)
(6.4244793e-07 6.070296e-08 -8.0772016e-26)
(6.3281529e-07 5.9287384e-08 3.5726825e-26)
(6.2233046e-07 5.6844984e-08 -3.8103535e-26)
(6.1186998e-07 5.4010831e-08 4.5358012e-26)
(6.0101738e-07 5.072066e-08 1.1140889e-26)
(5.8957106e-07 4.7105986e-08 -4.7915132e-27)
(5.7755619e-07 4.3381848e-08 -3.3711254e-27)
(5.6502981e-07 3.9735962e-08 -1.0447507e-27)
(5.5199374e-07 3.6349057e-08 -6.7309693e-28)
(5.3848671e-07 3.3344163e-08 -8.8279281e-27)
(5.2434717e-07 3.0806292e-08 1.1264711e-26)
(5.1066247e-07 2.8728906e-08 -5.097369e-27)
(4.9732029e-07 2.6653013e-08 7.7622633e-27)
(7.8259064e-07 5.1608086e-07 7.0040808e-27)
(8.0096547e-07 5.0736565e-07 8.748609e-25)
(8.2590395e-07 5.0850502e-07 3.534374e-26)
(8.4201736e-07 5.0990731e-07 -2.3643272e-26)
(8.5593154e-07 5.1261823e-07 4.7297092e-27)
(8.6747115e-07 5.1595153e-07 6.8811509e-28)
(8.7729063e-07 5.1953827e-07 3.7723771e-27)
(8.8572029e-07 5.2313165e-07 -5.7583124e-28)
(8.9299313e-07 5.2652602e-07 1.4702292e-28)
(8.99309e-07 5.295507e-07 -1.9241459e-29)
(9.0483639e-07 5.32061e-07 -4.0771e-29)
(9.097192e-07 5.339311e-07 1.2989364e-28)
(9.1408172e-07 5.3504785e-07 1.6307803e-27)
(9.1803161e-07 5.3530611e-07 -1.4627037e-27)
(9.2166365e-07 5.3460196e-07 2.70159e-27)
(9.2505255e-07 5.3282271e-07 1.4707539e-26)
(9.2825359e-07 5.2983622e-07 4.4100778e-27)
(9.3129592e-07 5.2548127e-07 3.3577764e-26)
(9.3422312e-07 5.195665e-07 -8.2183219e-26)
(9.3706757e-07 5.1183673e-07 9.1176532e-26)
(9.3955391e-07 5.0222564e-07 -3.0645832e-26)
(9.4323473e-07 4.90662e-07 -2.1136233e-25)
(9.434404e-07 4.7479422e-07 -2.2256179e-25)
(9.4061922e-07 4.6122775e-07 -1.1936481e-24)
(7.1595636e-07 9.678937e-08 -8.6675558e-25)
(7.0130792e-07 8.6458574e-08 -2.3723951e-26)
(6.8674777e-07 8.0829383e-08 -1.201291e-25)
(6.7285631e-07 7.5392985e-08 5.7242776e-26)
(6.6140831e-07 7.1751394e-08 -5.1637274e-26)
(6.4997258e-07 6.8686845e-08 -8.2535117e-26)
(6.3873783e-07 6.5634478e-08 8.0659615e-26)
(6.2732479e-07 6.2400679e-08 -5.7366849e-27)
(6.1556346e-07 5.9021844e-08 -1.2836495e-26)
(6.034201e-07 5.5628927e-08 2.1351449e-27)
(5.9088517e-07 5.233911e-08 3.6379192e-28)
(5.7791856e-07 4.9271563e-08 -6.9047455e-28)
(5.6450001e-07 4.6511335e-08 -3.8466861e-29)
(5.5037936e-07 4.4120147e-08 3.2652614e-27)
(5.3656568e-07 4.2102038e-08 -1.3826816e-27)
(5.2297057e-07 4.0058998e-08 -3.6486831e-26)
(8.1272302e-07 4.8425876e-07 5.3470013e-25)
(8.345835e-07 4.9020062e-07 -6.6707174e-26)
(8.5035407e-07 4.9458591e-07 8.2557402e-27)
(8.6474575e-07 4.9956992e-07 -1.9947693e-26)
(8.7691593e-07 5.0477741e-07 -4.3404717e-27)
(8.8741589e-07 5.099357e-07 1.4061933e-27)
(8.9652103e-07 5.1484227e-07 -5.9147604e-28)
(9.0444173e-07 5.19328e-07 4.9785085e-28)
(9.1137543e-07 5.2325404e-07 6.6210617e-29)
(9.1749371e-07 5.2650309e-07 -8.1755821e-30)
(9.2294453e-07 5.2897192e-07 -1.0059632e-28)
(9.2785575e-07 5.3056554e-07 9.4201844e-29)
(9.3233811e-07 5.3119299e-07 7.5637977e-28)
(9.3648675e-07 5.3076212e-07 -5.3312529e-28)
(9.403766e-07 5.2917354e-07 -9.8465771e-27)
(9.4405986e-07 5.2631509e-07 -1.3651244e-26)
(9.4755906e-07 5.2205547e-07 3.1164931e-27)
(9.5088283e-07 5.1625021e-07 -2.930498e-26)
(9.5403015e-07 5.0872904e-07 -2.7930154e-26)
(9.5686657e-07 4.9939068e-07 -3.3576578e-27)
(9.5971139e-07 4.8854057e-07 4.2146945e-26)
(9.6175272e-07 4.7550789e-07 -6.3754025e-26)
(9.5936888e-07 4.6193126e-07 4.6889227e-25)
(9.5958989e-07 4.4673712e-07 1.5770769e-25)
(9.5862687e-07 4.2859739e-07 1.7623848e-24)
(7.6401832e-07 1.1884168e-07 -2.7574752e-24)
(7.4776373e-07 1.1268148e-07 -1.0552365e-24)
(7.3837281e-07 1.0605738e-07 6.7559741e-25)
(7.2925208e-07 1.0046481e-07 -1.7810369e-26)
(7.1454238e-07 9.3774488e-08 6.8297142e-26)
(7.0130571e-07 8.8847274e-08 -6.8199559e-26)
(6.8899074e-07 8.4618135e-08 1.7343122e-26)
(6.769229e-07 8.1045911e-08 2.5118285e-26)
(6.6507204e-07 7.7706005e-08 -3.7472708e-26)
(6.5317756e-07 7.4418005e-08 -1.1084107e-26)
(6.4110327e-07 7.1162213e-08 4.4509276e-27)
(6.2877857e-07 6.7994666e-08 1.1600538e-27)
(6.1613961e-07 6.4978945e-08 -8.0319273e-28)
(6.0310888e-07 6.2190564e-08 1.5583237e-27)
(5.8961045e-07 5.9695885e-08 -1.0221867e-26)
(5.7532125e-07 5.7563024e-08 -6.6413848e-28)
(5.612372e-07 5.5833603e-08 1.9005565e-26)
(5.4724424e-07 5.4125406e-08 -1.5742611e-26)
(8.276817e-07 4.6757159e-07 -1.6819754e-25)
(8.4685934e-07 4.7370946e-07 9.730812e-27)
(8.6207363e-07 4.7962455e-07 1.3476282e-25)
(8.7627984e-07 4.8635906e-07 -4.9090421e-26)
(8.8846476e-07 4.9324395e-07 -1.1371759e-26)
(8.9913109e-07 4.9990129e-07 7.6911602e-27)
(9.0848548e-07 5.0609692e-07 -1.2320776e-28)
(9.1669909e-07 5.1166863e-07 -1.2026574e-28)
(9.2395038e-07 5.1649827e-07 4.2665135e-29)
(9.3039985e-07 5.2049214e-07 1.5037028e-30)
(9.361879e-07 5.2356847e-07 6.3098013e-29)
(9.4143635e-07 5.2565112e-07 2.8892117e-29)
(9.462495e-07 5.2666532e-07 -1.0643628e-32)
(9.5071517e-07 5.2653418e-07 2.0695072e-30)
(9.549015e-07 5.2517558e-07 -8.75347e-28)
(9.5885376e-07 5.225005e-07 -6.4385072e-27)
(9.6258801e-07 5.1841101e-07 1.2277171e-26)
(9.6609266e-07 5.128085e-07 -1.1915376e-26)
(9.6932707e-07 5.0559777e-07 2.6026311e-26)
(9.7218178e-07 4.9673222e-07 -4.0389531e-26)
(9.746334e-07 4.8636966e-07 -1.6845372e-27)
(9.762273e-07 4.7441311e-07 5.0362536e-26)
(9.7631559e-07 4.6173806e-07 3.7088945e-28)
(9.7751412e-07 4.4815248e-07 4.9718807e-26)
(9.7492123e-07 4.2914979e-07 -2.3025635e-25)
(9.7263637e-07 4.127683e-07 -9.8858714e-25)
(9.7442973e-07 3.9683255e-07 9.5246949e-25)
(9.6698236e-07 3.7860595e-07 1.1454336e-24)
(8.2217989e-07 1.5963341e-07 -4.540064e-24)
(8.0946884e-07 1.4751951e-07 -9.1035944e-25)
(7.9388236e-07 1.3150485e-07 5.8207252e-25)
(7.7859796e-07 1.2486279e-07 1.4810811e-25)
(7.6523849e-07 1.1886477e-07 -1.8102255e-26)
(7.5372533e-07 1.1277984e-07 4.1733375e-26)
(7.4062877e-07 1.0706649e-07 -1.1179713e-26)
(7.2773537e-07 1.020113e-07 3.7530664e-26)
(7.1518305e-07 9.750935e-08 -2.292101e-26)
(7.0282176e-07 9.3595878e-08 -3.2858635e-26)
(6.9060587e-07 9.0030098e-08 1.6485726e-26)
(6.7839113e-07 8.6681048e-08 8.8779546e-27)
(6.6607275e-07 8.3504584e-08 9.9044891e-28)
(6.5356767e-07 8.0508948e-08 -2.866583e-28)
(6.4078627e-07 7.7723772e-08 -1.169694e-27)
(6.2762259e-07 7.5193336e-08 -2.0256997e-28)
(6.1396266e-07 7.2975423e-08 1.3810895e-26)
(5.9944477e-07 7.1156829e-08 -1.8307598e-26)
(5.8509336e-07 6.985928e-08 3.2666914e-26)
(5.7074456e-07 6.8795462e-08 -4.7822409e-26)
(8.4469868e-07 4.4847851e-07 4.3846625e-25)
(8.6209293e-07 4.5668237e-07 -1.7441575e-26)
(8.7642412e-07 4.6463357e-07 -2.6816874e-26)
(8.8995656e-07 4.7322104e-07 6.0856594e-27)
(9.0170768e-07 4.8174352e-07 -1.1948305e-27)
(9.1214369e-07 4.8982951e-07 1.3829988e-29)
(9.2139988e-07 4.9724904e-07 1.2528173e-27)
(9.2960365e-07 5.0385559e-07 3.4658791e-29)
(9.3690723e-07 5.0955186e-07 1.1988904e-29)
(9.434525e-07 5.1426568e-07 2.968978e-29)
(9.4936546e-07 5.1793545e-07 -1.1988445e-29)
(9.5475583e-07 5.205033e-07 2.3157936e-29)
(9.5971627e-07 5.2191127e-07 -3.7592832e-29)
(9.6432277e-07 5.2209955e-07 1.3126221e-28)
(9.6863251e-07 5.2100496e-07 3.0494469e-28)
(9.7268093e-07 5.185619e-07 1.8373572e-27)
(9.7647689e-07 5.1470346e-07 -2.0709798e-28)
(9.799996e-07 5.0936969e-07 5.6207712e-27)
(9.8319608e-07 5.0251588e-07 -8.2469714e-27)
(9.8597138e-07 4.9413873e-07 4.6285575e-26)
(9.8823969e-07 4.8432648e-07 -3.7464087e-27)
(9.8979487e-07 4.7309962e-07 6.4057267e-26)
(9.9055085e-07 4.6077638e-07 -1.0171986e-26)
(9.9136377e-07 4.4746592e-07 -3.8680284e-26)
(9.9109523e-07 4.3194125e-07 -1.6534925e-26)
(9.892205e-07 4.168085e-07 6.3970547e-26)
(9.8802413e-07 4.0135148e-07 1.3383856e-26)
(9.7949727e-07 3.814181e-07 -6.1065851e-25)
(9.7195327e-07 3.6926006e-07 2.043023e-25)
(9.7045567e-07 3.5698784e-07 -3.8161396e-25)
(9.6638951e-07 3.4320209e-07 5.5571454e-25)
(9.601045e-07 3.3048277e-07 -2.2307655e-25)
(9.5423492e-07 3.1888959e-07 -2.7380901e-25)
(9.4832768e-07 3.0770574e-07 -1.2581709e-25)
(9.4134213e-07 2.9661555e-07 6.3334962e-27)
(9.3373147e-07 2.8646895e-07 8.4344374e-27)
(9.2643131e-07 2.7693198e-07 -3.0312869e-27)
(9.1916638e-07 2.6755607e-07 4.3836376e-26)
(9.1131576e-07 2.5803666e-07 9.2004379e-26)
(9.031087e-07 2.4872318e-07 5.7893963e-26)
(8.9513405e-07 2.3919683e-07 -5.7474365e-26)
(8.8752796e-07 2.2862374e-07 -1.1994919e-26)
(8.7751112e-07 2.1569082e-07 -6.4552941e-26)
(8.6598906e-07 2.023467e-07 -1.2021799e-25)
(8.5529752e-07 1.8762394e-07 4.4537603e-26)
(8.4470255e-07 1.7087877e-07 7.2720317e-25)
(8.3314851e-07 1.5965089e-07 -6.6255712e-26)
(8.1965677e-07 1.4871855e-07 2.0471034e-26)
(8.0429381e-07 1.392858e-07 2.7490666e-27)
(7.9077729e-07 1.32489e-07 -3.1512608e-26)
(7.7821649e-07 1.2601255e-07 7.7354048e-27)
(7.6540191e-07 1.2015837e-07 3.4599094e-27)
(7.5269102e-07 1.1493283e-07 -1.2570531e-26)
(7.4013224e-07 1.1027312e-07 3.8875194e-27)
(7.2767843e-07 1.0616304e-07 -5.477363e-27)
(7.1529893e-07 1.024698e-07 1.9316138e-27)
(7.0291061e-07 9.9101011e-08 -2.7197244e-27)
(6.9043132e-07 9.6006835e-08 -1.4312201e-27)
(6.7777803e-07 9.3172464e-08 -8.3273998e-28)
(6.6485131e-07 9.0603229e-08 -9.2121039e-28)
(6.5152937e-07 8.8319542e-08 2.0192553e-27)
(6.3767086e-07 8.6361334e-08 -1.5834744e-26)
(6.228969e-07 8.4804807e-08 -1.6401758e-27)
(6.0824431e-07 8.3871629e-08 2.4023499e-26)
(5.934203e-07 8.3697513e-08 -4.0611278e-27)
(8.6339371e-07 4.2485198e-07 -1.6088418e-25)
(8.7876443e-07 4.3872272e-07 3.1873048e-27)
(8.9219075e-07 4.498053e-07 5.7183662e-26)
(9.0495607e-07 4.6046438e-07 -6.4975984e-28)
(9.1609589e-07 4.7060305e-07 -1.0288647e-26)
(9.2606873e-07 4.8003251e-07 1.3145849e-27)
(9.3498268e-07 4.8858377e-07 -3.6934736e-28)
(9.429432e-07 4.9614551e-07 -8.5977242e-29)
(9.5008186e-07 5.0264581e-07 8.1939263e-30)
(9.5652284e-07 5.0803326e-07 -2.5627859e-30)
(9.623761e-07 5.1226503e-07 0)
(9.6773693e-07 5.1530029e-07 0)
(9.7268441e-07 5.1709771e-07 2.7110279e-29)
(9.7728148e-07 5.1761466e-07 -7.2702795e-29)
(9.8157319e-07 5.1680701e-07 -1.9315741e-28)
(9.8558454e-07 5.1463126e-07 5.7980669e-29)
(9.8931736e-07 5.1104727e-07 2.0467355e-28)
(9.9274778e-07 5.0602544e-07 4.2450726e-27)
(9.9582479e-07 4.9955456e-07 -7.5163629e-27)
(9.9847158e-07 4.9165649e-07 1.6498778e-27)
(1.0006051e-06 4.824003e-07 -1.790197e-26)
(1.0021131e-06 4.7184455e-07 -2.9795992e-27)
(1.0029611e-06 4.6014907e-07 -9.6344246e-27)
(1.0033551e-06 4.4737495e-07 -4.3127273e-26)
(1.0027597e-06 4.3320751e-07 3.2834275e-26)
(1.0011609e-06 4.1900258e-07 -3.2490879e-26)
(9.9926405e-07 4.0440276e-07 4.9236499e-27)
(9.9498614e-07 3.8891287e-07 -1.4088136e-26)
(9.8938316e-07 3.7573662e-07 -1.9747732e-26)
(9.8593107e-07 3.6259132e-07 3.0074021e-25)
(9.8176854e-07 3.4924044e-07 -7.5538586e-26)
(9.7615996e-07 3.3677075e-07 6.3462568e-26)
(9.7033031e-07 3.2511703e-07 -6.5767549e-26)
(9.6423474e-07 3.1393309e-07 -1.9796289e-26)
(9.5745697e-07 3.0303808e-07 -3.0405551e-27)
(9.502325e-07 2.9286666e-07 -2.8931523e-27)
(9.4305544e-07 2.8321625e-07 -1.7005344e-28)
(9.3585262e-07 2.7380001e-07 7.6898194e-27)
(9.2833299e-07 2.643706e-07 -8.8746907e-26)
(9.2059148e-07 2.5504667e-07 9.0948663e-26)
(9.1287808e-07 2.4551164e-07 9.5937942e-27)
(9.0516987e-07 2.3522548e-07 1.025256e-25)
(8.9601452e-07 2.2337938e-07 -7.9019434e-28)
(8.8560868e-07 2.1101962e-07 1.7593095e-25)
(8.7560602e-07 1.98088e-07 -2.3849029e-26)
(8.6556031e-07 1.8502556e-07 -1.0863943e-25)
(8.5330742e-07 1.7275637e-07 5.0128229e-26)
(8.4057945e-07 1.6240481e-07 1.0798915e-26)
(8.2716217e-07 1.5339137e-07 3.6706201e-27)
(8.1413673e-07 1.458444e-07 1.6052184e-26)
(8.015257e-07 1.3904032e-07 -1.1885938e-26)
(7.8894591e-07 1.3299836e-07 -5.5483499e-28)
(7.7643774e-07 1.2763796e-07 3.7283945e-28)
(7.6399438e-07 1.2287708e-07 -4.093157e-27)
(7.5158927e-07 1.1867216e-07 2.9429875e-27)
(7.3919496e-07 1.1493769e-07 1.3043738e-27)
(7.2675342e-07 1.1160363e-07 4.6195339e-28)
(7.1419584e-07 1.0862219e-07 -1.2760806e-28)
(7.0144358e-07 1.0596948e-07 7.4472174e-28)
(6.8839464e-07 1.0363612e-07 -4.7080377e-27)
(6.749191e-07 1.0162418e-07 6.2890001e-28)
(6.6084673e-07 9.9941882e-08 7.6923943e-27)
(6.4579737e-07 9.8610714e-08 2.8378179e-26)
(6.3082298e-07 9.7866439e-08 -6.1241414e-26)
(6.1405911e-07 9.7626687e-08 2.2703853e-25)
(8.771421e-07 4.0484792e-07 2.3752095e-25)
(8.9516622e-07 4.2216881e-07 5.835667e-26)
(9.0850084e-07 4.3579394e-07 -2.8166754e-26)
(9.2065423e-07 4.4838097e-07 6.5309351e-27)
(9.3116399e-07 4.6005027e-07 9.1966495e-27)
(9.4054676e-07 4.7072604e-07 1.4641338e-27)
(9.489521e-07 4.8030986e-07 -4.2708767e-28)
(9.5649471e-07 4.8873755e-07 2.3686619e-28)
(9.6329725e-07 4.9596757e-07 -5.8764253e-30)
(9.6947007e-07 5.0197042e-07 3.1323124e-29)
(9.7510929e-07 5.0672105e-07 -3.1323398e-29)
(9.802958e-07 5.1019492e-07 0)
(9.8509554e-07 5.1236656e-07 0)
(9.8955873e-07 5.132099e-07 2.1636967e-29)
(9.9371898e-07 5.1269885e-07 -1.523969e-29)
(9.9759182e-07 5.1080982e-07 2.9347874e-28)
(1.0011729e-06 5.0752496e-07 8.9624232e-29)
(1.0044371e-06 5.0283789e-07 2.0015144e-28)
(1.0073382e-06 4.9675986e-07 1.7842661e-28)
(1.0098136e-06 4.8932803e-07 -2.9096766e-27)
(1.0117925e-06 4.8060839e-07 -4.066203e-27)
(1.013196e-06 4.7067699e-07 3.4461124e-27)
(1.0139738e-06 4.5965243e-07 -3.7600433e-27)
(1.0141319e-06 4.4762282e-07 -1.9448662e-27)
(1.0134264e-06 4.3460516e-07 8.5941692e-28)
(1.0118464e-06 4.2122877e-07 1.2115776e-26)
(1.0095688e-06 4.0743763e-07 6.803039e-28)
(1.0058236e-06 3.9317188e-07 -2.7785323e-26)
(1.0012992e-06 3.8018624e-07 7.653378e-27)
(9.9729503e-07 3.6744405e-07 1.2220829e-26)
(9.9280334e-07 3.5463828e-07 -5.1612687e-26)
(9.8743924e-07 3.4245961e-07 1.5273142e-26)
(9.8168786e-07 3.3087995e-07 3.9985745e-26)
(9.7560539e-07 3.1976618e-07 2.4253837e-26)
(9.6906744e-07 3.0902843e-07 5.4985496e-27)
(9.6220166e-07 2.9889284e-07 4.4947802e-27)
(9.5527276e-07 2.8921335e-07 -2.453205e-27)
(9.4829432e-07 2.7980286e-07 -2.2329531e-26)
(9.4115128e-07 2.7046462e-07 3.4557726e-26)
(9.3386644e-07 2.6119944e-07 -7.3275203e-26)
(9.2651918e-07 2.5175094e-07 5.1524755e-26)
(9.1903595e-07 2.4177348e-07 -3.0739068e-26)
(9.1072891e-07 2.3077735e-07 9.9037046e-26)
(9.0156956e-07 2.1945126e-07 6.6481955e-27)
(8.9227157e-07 2.0796476e-07 -7.7252136e-27)
(8.8265864e-07 1.9643647e-07 7.407722e-26)
(8.7188892e-07 1.8534467e-07 -1.9854441e-26)
(8.6022789e-07 1.7530849e-07 -1.6130236e-26)
(8.4801204e-07 1.6636271e-07 -1.1215328e-26)
(8.3573188e-07 1.5856925e-07 3.4159949e-27)
(8.2352778e-07 1.516357e-07 2.3964203e-27)
(8.1131577e-07 1.4549704e-07 -3.3693317e-27)
(7.9910729e-07 1.4006722e-07 -6.4368743e-28)
(7.868934e-07 1.3527072e-07 -1.0140421e-28)
(7.7465437e-07 1.3105456e-07 -9.0614005e-28)
(7.6236341e-07 1.2735404e-07 9.1465898e-31)
(7.4997342e-07 1.2411329e-07 -1.5397503e-28)
(7.3742441e-07 1.2129176e-07 9.2879132e-29)
(7.2464301e-07 1.1886655e-07 1.1212608e-27)
(7.1153053e-07 1.168293e-07 -8.7901038e-28)
(6.979538e-07 1.1518615e-07 1.6767271e-26)
(6.8372678e-07 1.1395331e-07 -3.3211479e-26)
(6.6850273e-07 1.131952e-07 2.9874926e-26)
(6.5300564e-07 1.1320243e-07 -7.7219413e-26)
(6.3189505e-07 1.1240799e-07 -3.3334764e-25)
(6.2290699e-07 1.1740964e-07 1.7210766e-24)
(8.7806726e-07 3.5504376e-07 -5.2013502e-24)
(8.9033358e-07 3.8420208e-07 -2.5755869e-25)
(9.1229864e-07 4.060273e-07 1.1530019e-25)
(9.2540354e-07 4.2246148e-07 -8.0925374e-26)
(9.3680947e-07 4.3705312e-07 1.3014648e-26)
(9.4661027e-07 4.5021469e-07 -8.2770567e-27)
(9.5529505e-07 4.6205449e-07 2.2788642e-27)
(9.6306246e-07 4.7257823e-07 -3.6699288e-28)
(9.7005069e-07 4.8178365e-07 -2.4069217e-28)
(9.7638052e-07 4.8966609e-07 2.7806781e-29)
(9.8215284e-07 4.9622015e-07 -1.1983148e-29)
(9.8745155e-07 5.0143897e-07 0)
(9.9234511e-07 5.0531388e-07 0)
(9.9688707e-07 5.078347e-07 0)
(1.0011163e-06 5.0899094e-07 0)
(1.0050562e-06 5.0877309e-07 6.2663197e-30)
(1.0087141e-06 5.0717507e-07 -6.6945603e-29)
(1.0120808e-06 5.0419744e-07 9.351542e-29)
(1.0151297e-06 4.9985181e-07 9.6577469e-29)
(1.017819e-06 4.9416552e-07 -5.1119436e-28)
(1.0200945e-06 4.8718631e-07 1.3141044e-27)
(1.0218954e-06 4.7898324e-07 -7.2750531e-28)
(1.0231564e-06 4.6964073e-07 -1.3488996e-27)
(1.0238202e-06 4.5926779e-07 -9.270301e-27)
(1.0238407e-06 4.4797563e-07 2.072506e-26)
(1.0230899e-06 4.3587896e-07 -3.3459117e-27)
(1.021543e-06 4.2331823e-07 -1.1464528e-26)
(1.0192404e-06 4.1039396e-07 9.7210425e-27)
(1.0159297e-06 3.9725215e-07 -1.2584605e-27)
(1.0119629e-06 3.8465942e-07 9.4725605e-27)
(1.0078602e-06 3.7226675e-07 -3.9696585e-26)
(1.0032842e-06 3.5995734e-07 -4.1917571e-26)
(9.980975e-07 3.4807893e-07 -1.8684917e-26)
(9.9250486e-07 3.3666496e-07 -6.9287469e-27)
(9.8658009e-07 3.2568815e-07 5.4006618e-27)
(9.8031868e-07 3.1511836e-07 2.5309382e-27)
(9.7381097e-07 3.0504761e-07 -3.8275138e-27)
(9.6720738e-07 2.953839e-07 5.6602277e-27)
(9.6054701e-07 2.8599999e-07 -1.5816037e-27)
(9.5379465e-07 2.7674929e-07 -1.4405494e-26)
(9.4695044e-07 2.6756413e-07 1.4735996e-26)
(9.4002155e-07 2.5825542e-07 1.4883704e-26)
(9.3292009e-07 2.4860769e-07 2.8010836e-26)
(9.2530171e-07 2.3838207e-07 3.6393264e-26)
(9.1706653e-07 2.279103e-07 6.1909861e-26)
(9.0845161e-07 2.1735105e-07 -1.1590967e-26)
(8.9936159e-07 2.0678575e-07 4.9229468e-27)
(8.8944498e-07 1.965057e-07 1.4569107e-26)
(8.7873868e-07 1.869575e-07 7.6944071e-27)
(8.6749472e-07 1.7829292e-07 -1.6384468e-27)
(8.5598836e-07 1.7056803e-07 -1.1475435e-27)
(8.4435795e-07 1.6367007e-07 -2.0995562e-27)
(8.3262761e-07 1.5754825e-07 3.4341465e-27)
(8.2082092e-07 1.5213958e-07 -5.4310307e-28)
(8.0893824e-07 1.473839e-07 -8.8359067e-29)
(7.9696636e-07 1.4323164e-07 -1.2230457e-29)
(7.8488121e-07 1.3963224e-07 -7.5527254e-29)
(7.7264303e-07 1.3654199e-07 4.0525466e-29)
(7.6020041e-07 1.3392988e-07 4.808934e-28)
(7.4748959e-07 1.3178005e-07 1.3661439e-29)
(7.3442676e-07 1.3009328e-07 -8.0982907e-29)
(7.2090333e-07 1.2889317e-07 -1.5291041e-27)
(7.0680331e-07 1.2823491e-07 1.8786769e-26)
(6.9196623e-07 1.2828051e-07 -1.5296518e-26)
(6.763502e-07 1.2949338e-07 9.0008845e-27)
(6.616686e-07 1.316913e-07 -4.9916676e-26)
(6.4763757e-07 1.3498796e-07 2.4292946e-25)
(1.0984069e-06 4.1922553e-07 1.3065764e-24)
(9.0424594e-07 3.3318687e-07 5.2028958e-25)
(9.1777046e-07 3.6606326e-07 2.4992365e-25)
(9.3093928e-07 3.9037544e-07 -3.8507239e-26)
(9.4327425e-07 4.1006875e-07 4.8110038e-26)
(9.534939e-07 4.2668105e-07 -2.6776118e-26)
(9.6231819e-07 4.4125697e-07 -1.8319265e-27)
(9.701309e-07 4.5415705e-07 -1.0016442e-27)
(9.7712102e-07 4.65519e-07 6.3849898e-28)
(9.834307e-07 4.7540946e-07 2.7099717e-29)
(9.891722e-07 4.8386287e-07 2.6053568e-29)
(9.9443503e-07 4.9089876e-07 0)
(9.9929093e-07 4.9652859e-07 0)
(1.0037963e-06 5.007593e-07 0)
(1.0079934e-06 5.0359533e-07 0)
(1.0119106e-06 5.0504069e-07 0)
(1.0155627e-06 5.0510073e-07 0)
(1.01895e-06 5.0378462e-07 2.3120398e-29)
(1.0220587e-06 5.0110811e-07 -3.8106291e-30)
(1.0248616e-06 4.9709709e-07 -1.7610726e-30)
(1.027319e-06 4.9179096e-07 4.2093238e-28)
(1.0293824e-06 4.8524561e-07 8.8206706e-29)
(1.0309974e-06 4.7753439e-07 -8.8492275e-28)
(1.0321065e-06 4.6874627e-07 -5.0239557e-28)
(1.0326541e-06 4.5898865e-07 -6.8257202e-29)
(1.0325869e-06 4.4838113e-07 -3.771636e-27)
(1.0318284e-06 4.37061e-07 4.736847e-27)
(1.0303514e-06 4.2525454e-07 -4.2886191e-27)
(1.0281635e-06 4.1310666e-07 -4.1600669e-29)
(1.0251901e-06 4.00791e-07 -3.2801205e-28)
(1.0216078e-06 3.8867836e-07 1.0205539e-26)
(1.0176495e-06 3.7669504e-07 7.2129414e-27)
(1.0132198e-06 3.6484114e-07 8.4001211e-27)
(1.0082916e-06 3.5330124e-07 -1.0257699e-26)
(1.002974e-06 3.4213321e-07 7.6072735e-28)
(9.9733825e-07 3.313529e-07 7.2777104e-27)
(9.9142392e-07 3.2096038e-07 -3.875377e-27)
(9.85305e-07 3.1098837e-07 7.2898795e-29)
(9.7907622e-07 3.0137818e-07 -2.5230411e-27)
(9.7277946e-07 2.920393e-07 5.3638429e-27)
(9.6641158e-07 2.8286286e-07 4.1638487e-27)
(9.5996689e-07 2.737645e-07 -1.1196382e-26)
(9.5342552e-07 2.6460881e-07 -2.7660725e-28)
(9.4670582e-07 2.5525942e-07 -4.2121237e-26)
(9.3961084e-07 2.4560479e-07 1.3144629e-26)
(9.320315e-07 2.3579597e-07 -3.5721602e-26)
(9.2400719e-07 2.2594661e-07 1.1370278e-26)
(9.1546274e-07 2.1614799e-07 -1.2694398e-26)
(9.0623934e-07 2.0660594e-07 -5.8325784e-27)
(8.9634695e-07 1.9761347e-07 -7.911077e-27)
(8.8593761e-07 1.8932994e-07 4.8594527e-27)
(8.7518087e-07 1.8182803e-07 -3.5696727e-28)
(8.6418971e-07 1.7508729e-07 1.0675924e-28)
(8.5301656e-07 1.6908529e-07 -6.1898937e-28)
(8.4169227e-07 1.6378404e-07 -8.4712033e-29)
(8.3022538e-07 1.591417e-07 2.193485e-28)
(8.1860909e-07 1.5511976e-07 -1.0637041e-29)
(8.0682335e-07 1.5168042e-07 1.6171462e-30)
(7.9483506e-07 1.4879184e-07 -1.6474412e-29)
(7.8260071e-07 1.4643229e-07 1.1747113e-28)
(7.7006582e-07 1.4459283e-07 -3.5241902e-28)
(7.5716235e-07 1.4328032e-07 -6.2802253e-28)
(7.4380343e-07 1.4252308e-07 -5.0059768e-27)
(7.2990472e-07 1.4237869e-07 -6.4851163e-28)
(7.1538158e-07 1.4296144e-07 4.2156938e-27)
(7.000302e-07 1.4453116e-07 7.6058572e-28)
(6.8535853e-07 1.4720203e-07 4.5302085e-26)
(6.7101977e-07 1.5078571e-07 -4.9928035e-26)
(1.2015141e-06 3.6882167e-07 -1.4813344e-26)
(1.1956079e-06 3.7849055e-07 -2.8328618e-28)
(1.1892859e-06 3.8770084e-07 -8.2647208e-27)
(1.182639e-06 3.9613756e-07 3.875571e-27)
(1.1754729e-06 4.0374716e-07 2.6536173e-26)
(1.1681749e-06 4.1083012e-07 -7.7833259e-27)
(1.1609493e-06 4.1669065e-07 5.386716e-27)
(1.1529613e-06 4.2133502e-07 -2.8222604e-26)
(1.1448434e-06 4.2589224e-07 7.9421035e-26)
(1.1362007e-06 4.2842941e-07 -1.461428e-25)
(1.127816e-06 4.3144709e-07 1.1287115e-25)
(1.1226135e-06 4.3190401e-07 -1.7023765e-25)
(1.1107676e-06 4.2771681e-07 4.3769069e-25)
(1.1003824e-06 4.2747363e-07 7.531053e-26)
(1.0917458e-06 4.2339325e-07 -1.2382985e-24)
(9.2106733e-07 2.9684876e-07 -1.8624828e-24)
(9.2684215e-07 3.2270886e-07 2.0811556e-25)
(9.4074218e-07 3.5317662e-07 5.3144658e-26)
(9.5190263e-07 3.7880887e-07 4.2551337e-27)
(9.6194415e-07 3.9984487e-07 -1.8285689e-26)
(9.705615e-07 4.1778194e-07 -1.4955625e-27)
(9.7812813e-07 4.3344248e-07 2.4549522e-27)
(9.8487343e-07 4.4720436e-07 -9.1449975e-28)
(9.9094688e-07 4.5926373e-07 -9.1351715e-29)
(9.964651e-07 4.6972824e-07 1.3475901e-28)
(1.00152e-06 4.7866069e-07 -5.711658e-30)
(1.0061846e-06 4.8610114e-07 0)
(1.0105164e-06 4.920776e-07 0)
(1.0145598e-06 4.9661134e-07 0)
(1.0183457e-06 4.9972024e-07 0)
(1.0218933e-06 5.0142152e-07 0)
(1.025209e-06 5.0173365e-07 0)
(1.0282872e-06 5.0067883e-07 0)
(1.0311104e-06 4.9828543e-07 0)
(1.0336502e-06 4.945907e-07 1.4411912e-29)
(1.0358684e-06 4.8964346e-07 -5.9118251e-29)
(1.0377198e-06 4.8350607e-07 9.2967619e-29)
(1.0391552e-06 4.7625545e-07 -1.6658912e-28)
(1.0401225e-06 4.6798289e-07 1.7398047e-28)
(1.0405711e-06 4.5879493e-07 -3.6305373e-29)
(1.0404526e-06 4.4881161e-07 1.1527823e-27)
(1.0397155e-06 4.3816935e-07 7.9063975e-28)
(1.0383361e-06 4.2704265e-07 7.4429604e-28)
(1.0363141e-06 4.1557938e-07 -7.6982127e-28)
(1.0336354e-06 4.0393832e-07 -8.4004205e-28)
(1.0303926e-06 3.9233677e-07 -1.1896111e-27)
(1.0267016e-06 3.8080653e-07 1.3995652e-27)
(1.0225545e-06 3.6939568e-07 -1.2143628e-26)
(1.017969e-06 3.582211e-07 -4.5327042e-27)
(1.0130174e-06 3.473451e-07 -4.0139809e-27)
(1.0077633e-06 3.3680038e-07 2.7957415e-27)
(1.0022578e-06 3.2660021e-07 -4.8335136e-29)
(9.965629e-07 3.1675636e-07 4.120131e-30)
(9.9074431e-07 3.0723058e-07 -1.1207464e-28)
(9.8483921e-07 2.9795826e-07 -4.314306e-28)
(9.7885537e-07 2.8885897e-07 -1.62132e-27)
(9.7278593e-07 2.7985696e-07 2.2471498e-27)
(9.6660331e-07 2.7085692e-07 -3.2795642e-27)
(9.6023872e-07 2.6177217e-07 3.413177e-27)
(9.5356666e-07 2.5254842e-07 -5.4386281e-27)
(9.4649018e-07 2.4325877e-07 4.3726525e-27)
(9.389765e-07 2.3398374e-07 -2.4928565e-27)
(9.3096163e-07 2.2481111e-07 1.123345e-27)
(9.2236561e-07 2.1589405e-07 2.1009059e-27)
(9.1319527e-07 2.0743122e-07 1.8038497e-27)