/*--------------------------------*- C++ -*----------------------------------*\
| =========                 |                                                 |
| \\      /  F ield         | OpenFOAM: The Open Source CFD Toolbox           |
|  \\    /   O peration     | Version:  v2106                                 |
|   \\  /    A nd           | Website:  www.openfoam.com                      |
|    \\/     M anipulation  |                                                 |
\*---------------------------------------------------------------------------*/
FoamFile
{
    version     2.0;
    format      ascii;
    class       volVectorField;
    location    "0";
    object      U;
}
// * * * * * * * * * * * * * * * * * * * * * * * * * * * * * * * * * * * * * //

dimensions      [0 1 -1 0 0 0 0];

internalField   uniform (0 0 0); 

boundaryField
{
    walls
    {
        type            noSlip; //fixedValue;
        //value           uniform (0 0 0);
    }
    fixedWalls
    {
        type            noSlip; //fixedValue;
        //value           uniform (0 0 0);
    }
    inlet
    {
        type            zeroGradient; //fixedValue;
        //value           uniform (Ux Uy Uz);
    }
    outlet
    {
        type            zeroGradient;
    }
    frontandback
    {
        type            empty;
    }
    /*
    walls
    {
        type            codedMixed;
        refValue        uniform (0 0 0);
        refGradient     uniform (0 0 0);
        value           uniform (0 0 0); 
        valueFraction   uniform 0;       
        name		partialSlipBySlipLengthBC;

        code
        #{
    		const scalar slipLength = 1.0e-9;
    		const scalarField delta = patch().deltaCoeffs();
		const vectorField nHat = patch().nf();
    		const vectorField pif = patchInternalField();
    		
    		const scalarField valueF = 1.0 / (1.0 + slipLength * delta);

    		Field<vector> refVal(patch().size(), vector::zero);
    		const tensorField IField(nHat.size(), tensor::I);
    		Field<vector> Utan = transform(IField - sqr(nHat), pif);
    		Field<vector> val = (1.0 - valueF) * Utan + valueF * refVal;

    		operator==(val);
    		refValue() = refVal;
    		valueFraction() = valueF;
        #};
    }
    fixedWalls
    {
        type            codedMixed;
        refValue        uniform (0 0 0);
        refGradient     uniform (0 0 0);
        value           uniform (0 0 0); 
        valueFraction   uniform 0;       
        name		partialSlipBySlipLengthBC;

        code
        #{
    		const scalar slipLength = 1.0e-9;
    		const scalarField delta = patch().deltaCoeffs();
		const vectorField nHat = patch().nf();
    		const vectorField pif = patchInternalField();
    		
    		const scalarField valueF = 1.0 / (1.0 + slipLength * delta);

    		Field<vector> refVal(patch().size(), vector::zero);
    		const tensorField IField(nHat.size(), tensor::I);
    		Field<vector> Utan = transform(IField - sqr(nHat), pif);
    		Field<vector> val = (1.0 - valueF) * Utan + valueF * refVal;

    		operator==(val);
    		refValue() = refVal;
    		valueFraction() = valueF;
        #};
    }*/
    
}


// ************************************************************************* //
