/*--------------------------------*- C++ -*----------------------------------*\
| =========                 |                                                 |
| \\      /  F ield         | OpenFOAM: The Open Source CFD Toolbox           |
|  \\    /   O peration     | Version:  2412                                  |
|   \\  /    A nd           | Website:  www.openfoam.com                      |
|    \\/     M anipulation  |                                                 |
\*---------------------------------------------------------------------------*/
FoamFile
{
    version     2.0;
    format      ascii;
    arch        "LSB;label=32;scalar=64";
    class       volScalarField;
    location    "15174";
    object      p;
}
// * * * * * * * * * * * * * * * * * * * * * * * * * * * * * * * * * * * * * //

dimensions      [0 2 -2 0 0 0 0];

internalField   nonuniform List<scalar> 
57382
(
0.0082186407
0.0082140822
0.0082138268
0.0082111147
0.0082109587
0.0082054679
0.0082057889
0.0082004001
0.0082016324
0.0085051089
0.0085079981
0.0085038846
0.00851127
0.0085068951
0.0085104001
0.0085057516
0.008509574
0.0085089811
0.0087233309
0.0087233516
0.008723374
0.0087233985
0.0087234215
0.0087234402
0.008723452
0.0087234542
0.0087234436
0.0087234168
0.00872337
0.0087232987
0.0087231985
0.0087230612
0.0087228583
0.0087226765
0.0087233464
0.0087233637
0.0087233879
0.0087234137
0.008723433
0.0087234472
0.008723455
0.0087234548
0.0087234444
0.0087234213
0.0087233831
0.0087233269
0.0087232504
0.0087231497
0.0087230164
0.0087229215
0.0087228752
0.0087233787
0.008723381
0.0087233916
0.0087234094
0.0087234204
0.0087234275
0.0087234304
0.008723428
0.0087234195
0.0087234036
0.0087233795
0.0087233462
0.0087233029
0.0087232512
0.0087231956
0.00872307
0.008722963
0.0087234078
0.0087233937
0.0087233848
0.0087233929
0.0087233961
0.0087233971
0.0087233962
0.0087233932
0.0087233878
0.0087233801
0.0087233702
0.0087233584
0.008723345
0.0087233303
0.0087233157
0.0087232876
0.0087232584
0.0087234522
0.0087234201
0.0087233823
0.0087233802
0.0087233773
0.0087233729
0.0087233686
0.008723365
0.0087233628
0.008723363
0.008723367
0.0087233765
0.0087233939
0.0087234217
0.0087234628
0.0087235514
0.0087237013
0.0087236588
0.0087234757
0.0087233958
0.008723383
0.0087233638
0.0087233575
0.0087233484
0.0087233401
0.0087233351
0.008723335
0.0087233417
0.0087233577
0.0087233858
0.0087234294
0.0087234917
0.0087235774
0.0087237033
0.0087237754
0.008723848
0.0087234625
0.0087234134
0.0087233556
0.0087233386
0.0087233229
0.0087233083
0.0087233
0.0087232999
0.0087233107
0.008723336
0.0087233795
0.0087234461
0.0087235407
0.0087236688
0.0087238427
0.0087240888
0.0087243952
0.0087244891
0.0087234993
0.0087233814
0.0087233502
0.0087233134
0.008723293
0.0087232707
0.0087232566
0.0087232534
0.008723265
0.0087232955
0.0087233499
0.0087234339
0.0087235532
0.0087237137
0.0087239237
0.0087242027
0.0087244593
0.0087246734
0.008723428
0.0087233752
0.0087232991
0.0087232623
0.0087232262
0.0087232025
0.008723192
0.0087231997
0.0087232308
0.0087232907
0.0087233867
0.0087235258
0.0087237161
0.008723968
0.0087243032
0.0087247223
0.0087252125
0.0087256065
0.0087234738
0.0087233409
0.0087232936
0.0087232188
0.0087231639
0.0087231326
0.008723111
0.00872311
0.008723136
0.0087231948
0.0087232957
0.0087234457
0.0087236532
0.0087239277
0.0087242807
0.0087247186
0.0087252553
0.0087258784
0.0087265052
0.008723381
0.0087232511
0.0087232137
0.0087230909
0.0087230478
0.0087230086
0.008722992
0.0087230066
0.0087230565
0.0087231552
0.0087233081
0.0087235244
0.0087238134
0.0087241845
0.0087246451
0.0087251985
0.0087258259
0.0087269612
0.0087233696
0.0087233305
0.0087230172
0.0087229557
0.0087228903
0.0087228459
0.0087228394
0.0087228699
0.0087229588
0.0087231075
0.0087233251
0.008723623
0.0087240127
0.00872451
0.0087251455
0.0087259626
0.0087269026
0.0087278596
0.0087231084
0.0087227989
0.0087227481
0.0087226722
0.008722631
0.0087226267
0.0087226993
0.0087228349
0.0087230444
0.0087233391
0.0087237285
0.008724224
0.0087248422
0.0087255975
0.0087264908
0.0087276669
0.0087286683
0.0087227919
0.0087225247
0.0087224299
0.0087223653
0.0087223086
0.0087223686
0.0087224847
0.0087226778
0.0087229621
0.0087233437
0.0087238308
0.0087244388
0.0087251776
0.0087260545
0.0087271447
0.008728397
0.0087300427
0.0087224558
0.0087221287
0.008722101
0.008721909
0.0087219659
0.0087220556
0.0087222207
0.0087224883
0.0087228558
0.0087233238
0.0087239098
0.0087246197
0.0087254577
0.0087264534
0.008727541
0.0087290711
0.0087308948
0.0087219966
0.0087218094
0.0087214565
0.0087215013
0.0087215536
0.0087216703
0.0087219137
0.0087222636
0.008722706
0.0087232675
0.0087239428
0.0087247359
0.0087256614
0.0087266566
0.0087278751
0.0087293395
0.0087277235
0.0087308736
0.0087211888
0.0087208946
0.0087209489
0.0087210092
0.008721229
0.0087215665
0.0087219745
0.0087225139
0.0087231624
0.008723916
0.008724789
0.0087257575
0.0087268554
0.0087279232
0.0087290993
0.0087301945
0.0087308178
0.008720515
0.0087202546
0.0087202038
0.0087203999
0.0087207521
0.0087211168
0.008721646
0.0087222688
0.0087229943
0.0087238139
0.0087247186
0.0087257105
0.0087266999
0.0087276941
0.0087289119
0.0087304537
0.0087301018
0.0087346695
0.0087198419
0.0087192834
0.0087195064
0.0087198913
0.0087201435
0.008720674
0.0087212759
0.0087219782
0.0087227669
0.0087236335
0.0087245686
0.0087255386
0.0087265235
0.0087275098
0.008728684
0.0087310401
0.0087324382
0.0087334052
0.008718154
0.0087186329
0.0087189748
0.0087190572
0.0087196011
0.0087201829
0.0087208731
0.0087216472
0.0087224929
0.0087234103
0.0087243814
0.0087254063
0.0087264748
0.0087275752
0.0087290117
0.0087305818
0.0087321489
0.0087314269
0.0087370025
0.0087172244
0.0087162856
0.0087178351
0.0087183721
0.0087189621
0.0087196724
0.0087204482
0.0087212909
0.0087221975
0.0087231678
0.0087241923
0.0087252807
0.0087264178
0.0087276811
0.0087288239
0.0087301738
0.0087334659
0.0087351413
0.008740722
0.0087164366
0.008717066
0.0087175995
0.0087183328
0.0087191369
0.0087199966
0.0087209171
0.0087218993
0.0087229338
0.0087240302
0.0087251844
0.0087264303
0.0087276383
0.0087288796
0.0087306703
0.0087315344
0.0087338861
0.0087369544
0.008715532
0.008716358
0.0087168966
0.0087177159
0.0087186163
0.008719558
0.0087205604
0.0087216197
0.0087227318
0.0087238873
0.0087250843
0.0087262579
0.0087274188
0.0087285793
0.0087288367
0.0087310341
0.0087324527
0.0087300722
0.0087374153
0.0087144247
0.0087155935
0.0087161647
0.0087171122
0.0087181172
0.008719153
0.0087202473
0.0087213952
0.0087225801
0.0087237791
0.0087249497
0.0087260975
0.0087271875
0.0087277851
0.0087285219
0.0087294821
0.008732158
0.0087313444
0.008726146
0.0087371043
0.008713233
0.0087148347
0.0087154785
0.0087165499
0.0087176704
0.0087188185
0.0087200217
0.0087212659
0.00872251
0.0087237114
0.0087248559
0.0087258903
0.0087266706
0.0087273314
0.0087277471
0.0087282011
0.0087279433
0.0087282582
0.0087294444
0.0087334402
0.0087119741
0.0087141709
0.0087148537
0.0087160572
0.0087173262
0.0087186157
0.0087199558
0.0087212862
0.0087225586
0.0087237447
0.0087247827
0.0087256069
0.0087262451
0.0087266009
0.0087266489
0.0087257875
0.0087253697
0.0087265614
0.0087262954
0.0087257391
0.0087332196
0.0087108616
0.0087136261
0.0087143203
0.0087157026
0.0087171654
0.0087186589
0.0087201225
0.0087215109
0.0087227923
0.0087239046
0.0087248031
0.0087254752
0.0087258905
0.0087260523
0.0087257392
0.008725205
0.0087245915
0.0087241398
0.008726434
0.0087237956
0.0087214315
0.0087323622
0.008709731
0.0087131546
0.0087139374
0.0087155769
0.0087173745
0.008719035
0.0087205802
0.0087220064
0.0087232384
0.0087242413
0.0087249866
0.0087254565
0.0087256493
0.0087255258
0.0087251305
0.0087245163
0.008723556
0.0087224744
0.0087211562
0.0087217921
0.0087191687
0.0087146556
0.0087233636
0.0085970767
0.0085931497
0.0087085071
0.0087128638
0.0087138291
0.0087160427
0.0087180457
0.0087197901
0.0087214073
0.0087227948
0.0087239321
0.0087247782
0.0087253228
0.0087255632
0.0087254979
0.008725127
0.0087245058
0.0087235199
0.0087220974
0.0087196754
0.0087181966
0.0087169769
0.0087158469
0.0087127802
0.0087144294
0.0087226769
0.0086001164
0.0085983323
0.0085992092
0.0085955329
0.0087074121
0.0087129509
0.0087147573
0.008717155
0.0087191684
0.0087210359
0.0087226024
0.0087238998
0.0087248629
0.0087254939
0.0087257999
0.0087257892
0.0087254575
0.0087248385
0.0087238857
0.0087226051
0.0087207301
0.0087187922
0.008716044
0.0087133451
0.0087121373
0.0087126858
0.0087090892
0.0087118818
0.0087186504
0.0086015221
0.0085999239
0.0086023868
0.0085996532
0.0086002896
0.0085981263
0.0087061651
0.0087144523
0.0087164962
0.0087186902
0.0087209439
0.008722705
0.0087241902
0.0087252728
0.008725985
0.0087263531
0.0087263903
0.008726102
0.0087255071
0.0087245834
0.0087233407
0.0087217176
0.0087199082
0.0087176238
0.0087150056
0.0087121214
0.0087096313
0.0087085733
0.0087084826
0.0087028793
0.0087027117
0.0087051134
0.0087044183
0.0086057641
0.0086036906
0.0086053399
0.0086025123
0.0086036933
0.0086017962
0.0086007203
0.0085988955
0.00870797
0.0087169576
0.0087187116
0.0087213065
0.0087231555
0.0087248608
0.0087260507
0.0087268231
0.0087272381
0.0087273118
0.0087270586
0.0087264946
0.0087256139
0.0087244224
0.0087229095
0.0087211632
0.0087191164
0.0087168278
0.0087143279
0.0087115982
0.0087085776
0.0087055418
0.0087033127
0.0087018667
0.008702051
0.0086929789
0.0087030176
0.0087041592
0.0086166666
0.0086143022
0.0086122213
0.0086103165
0.008606942
0.008607256
0.0086052038
0.008604177
0.0086023843
0.0086010367
0.0085994921
0.0087106018
0.0087193368
0.0087220847
0.0087238736
0.0087259019
0.0087272104
0.0087280235
0.008728467
0.0087285599
0.0087283295
0.008727792
0.0087269515
0.0087258157
0.0087243883
0.0087227091
0.0087207681
0.0087186059
0.0087162862
0.0087137775
0.0087110641
0.0087080229
0.0087046622
0.0087016772
0.008698699
0.0086962634
0.0086976631
0.0086893531
0.008696031
0.0086993615
0.0086924058
0.0086219515
0.0086194789
0.0086173046
0.0086186633
0.0086142782
0.0086138793
0.0086120645
0.0086094701
0.0086079816
0.0086059596
0.0086045213
0.0086029161
0.0086014971
0.0086000298
0.0087082599
0.0087229938
0.0087254356
0.0087276598
0.0087288485
0.0087296032
0.0087300445
0.0087301335
0.0087299097
0.0087293896
0.00872858
0.0087274898
0.0087261273
0.0087245149
0.0087226585
0.0087205815
0.0087183234
0.0087158785
0.0087132967
0.0087104985
0.0087075183
0.0087046146
0.0087014757
0.0086978056
0.0086947932
0.0086925978
0.0086924367
0.0086915622
0.0086801199
0.0086891931
0.0086918852
0.0086909572
0.0086908972
0.0086912208
0.0086812787
0.0086334141
0.0086342823
0.0086332593
0.0086310175
0.0086266197
0.0086256261
0.0086209894
0.0086203006
0.0086197258
0.0086164534
0.0086145893
0.0086124564
0.0086101127
0.0086083562
0.0086065351
0.0086049819
0.0086034101
0.0086019385
0.0086004877
0.0087308603
0.0087258063
0.0087303836
0.008731204
0.0087316115
0.0087319853
0.0087320361
0.0087317956
0.0087312783
0.0087304879
0.0087294315
0.0087281169
0.0087265583
0.0087247653
0.0087227543
0.0087205489
0.0087181508
0.0087155939
0.008712855
0.0087099999
0.0087071082
0.0087041335
0.0087009435
0.008697876
0.008694806
0.0086921478
0.0086887928
0.0086861265
0.0086869053
0.0086863214
0.0086848367
0.0086845142
0.0086844589
0.0086740699
0.0086817566
0.0086825584
0.0086798167
0.0086781489
0.0086758623
0.0086733597
0.0086707176
0.0086679499
0.0086650775
0.0086621084
0.0086590756
0.0086559559
0.0086518678
0.0086485496
0.0086437586
0.0086394035
0.0086360586
0.0086337022
0.0086313679
0.0086289317
0.0086267357
0.0086233337
0.0086212271
0.0086193823
0.0086167517
0.0086146929
0.008612641
0.0086105705
0.0086087738
0.0086070102
0.008605393
0.0086038202
0.0086023274
0.0086008828
0.0087229435
0.0087291043
0.008731823
0.0087338334
0.0087339342
0.008734205
0.0087342184
0.0087339606
0.0087334408
0.0087326623
0.0087316305
0.0087303514
0.008728834
0.0087270867
0.0087251212
0.008722953
0.0087205893
0.0087180514
0.0087153385
0.0087124963
0.0087095667
0.0087065691
0.0087035059
0.0087004939
0.0086975225
0.0086947978
0.0086918218
0.0086888925
0.0086873674
0.0086857538
0.0086839406
0.0086823945
0.0086805205
0.00867888
0.0086797408
0.0086787601
0.0086767255
0.0086750619
0.0086729621
0.0086706525
0.0086681976
0.0086656138
0.0086629203
0.0086601249
0.0086572484
0.0086542822
0.0086507838
0.0086475699
0.0086441478
0.0086400348
0.008637158
0.0086341087
0.0086314901
0.008628934
0.0086264002
0.0086235418
0.0086212646
0.0086192055
0.0086169218
0.0086148775
0.0086128767
0.0086109149
0.0086091046
0.0086073632
0.008605728
0.0086041581
0.0086026605
0.0086012203
0.0087239892
0.0087334873
0.0087356771
0.0087362994
0.0087366283
0.0087366347
0.0087363825
0.0087358619
0.0087350899
0.0087340758
0.0087328238
0.0087313386
0.0087296254
0.0087276909
0.008725545
0.0087231959
0.0087206589
0.0087179433
0.0087150809
0.0087121039
0.0087090399
0.0087059159
0.0087027938
0.0086997273
0.0086967708
0.0086938102
0.008690926
0.0086887694
0.0086866865
0.0086845718
0.0086825853
0.0086805332
0.0086785312
0.0086773418
0.0086757584
0.0086737761
0.0086718455
0.0086697264
0.0086674723
0.0086651088
0.0086626458
0.0086600929
0.0086574535
0.0086547347
0.0086519334
0.0086489217
0.0086458922
0.0086427375
0.0086393481
0.0086364517
0.0086336159
0.0086310369
0.0086285137
0.0086260605
0.0086235485
0.0086213039
0.0086191877
0.0086170309
0.008615003
0.0086130382
0.0086111363
0.0086093407
0.0086076218
0.0086059902
0.0086044278
0.0086029336
0.0086014994
0.0087359503
0.0087347885
0.0087390262
0.0087395359
0.008739347
0.0087390733
0.0087385413
0.0087377648
0.0087367609
0.0087355298
0.0087340709
0.0087323842
0.0087304717
0.0087283376
0.0087259878
0.008723433
0.0087206858
0.0087177699
0.0087147143
0.0087115496
0.0087083098
0.0087050402
0.0087017873
0.0086985845
0.0086954278
0.008692384
0.0086896821
0.0086870881
0.0086845625
0.0086821673
0.0086798399
0.0086775284
0.0086756707
0.008673701
0.0086715433
0.0086693848
0.0086671518
0.0086648539
0.0086624984
0.0086600859
0.008657616
0.0086550853
0.0086524925
0.0086498312
0.0086470643
0.0086442549
0.0086413732
0.0086384463
0.0086357317
0.0086331016
0.0086306054
0.0086281693
0.0086257972
0.0086234455
0.0086212374
0.0086191235
0.00861704
0.0086150473
0.0086131228
0.0086112668
0.0086094962
0.0086078004
0.0086061814
0.0086046307
0.0086031455
0.0086017206
0.0087291794
0.0087387403
0.0087415215
0.0087431874
0.0087424916
0.008742031
0.0087414627
0.008740674
0.0087396762
0.0087384644
0.0087370304
0.008735368
0.008733473
0.0087313441
0.0087289829
0.0087263958
0.0087235935
0.0087205955
0.0087174279
0.0087141222
0.0087107157
0.0087072526
0.0087037724
0.0087003109
0.0086968941
0.0086935645
0.0086904199
0.0086873888
0.0086844647
0.0086816714
0.0086789875
0.0086763965
0.0086740367
0.0086716864
0.0086693083
0.0086669664
0.0086646367
0.0086623085
0.0086599746
0.0086576258
0.0086552525
0.008652844
0.0086503964
0.0086479026
0.0086453474
0.0086427577
0.0086401304
0.0086374953
0.0086349615
0.0086324898
0.0086300968
0.0086277567
0.0086254707
0.0086232276
0.0086210758
0.0086189991
0.0086169739
0.0086150222
0.008613137
0.0086113195
0.0086095767
0.0086079047
0.0086063034
0.0086047684
0.0086032967
0.0086018844
0.0087407939
0.0087416119
0.0087458758
0.008745725
0.0087451506
0.0087445763
0.0087437951
0.0087428094
0.0087416221
0.0087402181
0.0087385831
0.0087367065
0.0087345805
0.0087322011
0.0087295697
0.0087266935
0.0087235879
0.0087202775
0.0087167928
0.0087131741
0.0087094736
0.0087057241
0.0087019648
0.0086982423
0.0086945735
0.0086910217
0.0086875786
0.0086842633
0.0086810861
0.008678032
0.0086751016
0.0086723508
0.0086696888
0.0086670944
0.0086645847
0.0086621689
0.0086598199
0.0086575161
0.0086552387
0.0086529691
0.008650687
0.0086483887
0.0086460642
0.0086437021
0.0086413145
0.0086389041
0.0086364927
0.0086341291
0.0086318042
0.0086295259
0.0086272869
0.0086250902
0.0086229358
0.0086208455
0.0086188163
0.0086168413
0.0086149304
0.0086130828
0.0086113003
0.0086095863
0.0086079396
0.0086063594
0.0086048431
0.0086033881
0.0086019916
0.0087297122
0.0087438582
0.0087475019
0.0087493703
0.0087485355
0.0087478666
0.0087471099
0.0087461503
0.0087449989
0.0087436363
0.0087420389
0.0087401877
0.0087380678
0.0087356684
0.0087329846
0.0087300188
0.0087267819
0.008723297
0.0087195941
0.0087157187
0.008711741
0.0087076817
0.0087035827
0.0086995221
0.0086954724
0.008691504
0.0086876395
0.0086839282
0.0086803694
0.008676943
0.0086736562
0.0086705699
0.0086676325
0.0086648287
0.0086621532
0.0086596721
0.0086573212
0.0086550648
0.0086528755
0.0086507253
0.0086485773
0.0086464354
0.0086442842
0.0086421062
0.0086399097
0.0086376931
0.0086354717
0.0086332678
0.0086310811
0.0086289176
0.0086267775
0.008624666
0.0086225884
0.0086205574
0.0086185767
0.0086166472
0.0086147755
0.0086129638
0.0086112143
0.0086095292
0.0086079085
0.0086063516
0.0086048566
0.0086034213
0.0086020431
0.0087471935
0.0087499165
0.0087532904
0.0087524083
0.0087514291
0.0087506416
0.0087497044
0.0087485976
0.0087472915
0.0087457476
0.0087439357
0.0087418317
0.0087394164
0.008736677
0.0087336085
0.0087302166
0.0087265245
0.0087225583
0.0087183724
0.0087140823
0.0087096719
0.0087051833
0.0087007714
0.0086962967
0.0086918731
0.0086875495
0.0086834336
0.008679496
0.0086756862
0.0086720152
0.0086686158
0.0086654205
0.0086624128
0.0086595576
0.0086570513
0.0086547345
0.0086525557
0.0086504833
0.0086484803
0.0086464746
0.0086445019
0.0086425354
0.0086405394
0.0086385307
0.0086364946
0.0086344458
0.0086323942
0.0086303386
0.0086282862
0.0086262398
0.0086242074
0.0086221972
0.0086202206
0.0086182852
0.0086163965
0.0086145611
0.0086127828
0.0086110645
0.0086094082
0.0086078143
0.0086062822
0.0086048105
0.0086033972
0.0086020401
0.0087356801
0.0087517779
0.0087554686
0.0087563352
0.0087550598
0.0087542717
0.0087534189
0.0087524001
0.0087511845
0.0087497225
0.0087479734
0.0087459035
0.0087434835
0.0087406912
0.0087375121
0.008733943
0.0087300109
0.0087257275
0.0087211587
0.0087165346
0.0087117342
0.0087067759
0.0087020413
0.0086970996
0.0086921609
0.008687291
0.0086827534
0.0086784546
0.0086742493
0.0086701365
0.0086664387
0.0086629901
0.0086597699
0.0086566585
0.008654195
0.0086519707
0.0086499143
0.008648004
0.0086462015
0.0086443441
0.0086425632
0.0086408052
0.0086389915
0.0086371751
0.0086353111
0.008633427
0.0086315239
0.0086295939
0.0086276477
0.0086256878
0.008623726
0.0086217736
0.0086198435
0.0086179471
0.0086160935
0.0086142902
0.0086125424
0.0086108534
0.0086092253
0.0086076586
0.0086061526
0.0086047062
0.0086033172
0.0086019834
0.0087577672
0.0087590862
0.008760187
0.0087587534
0.0087580191
0.0087572947
0.0087564091
0.0087553254
0.0087539828
0.0087523298
0.0087503214
0.0087479172
0.0087450831
0.0087417917
0.0087380267
0.0087338279
0.0087291599
0.0087240892
0.0087191368
0.0087139048
0.00870834
0.0087034269
0.0086977309
0.0086923376
0.008686975
0.0086821084
0.008677521
0.0086728465
0.0086680591
0.0086641001
0.0086604454
0.0086571121
0.0086534943
0.0086511176
0.0086490107
0.0086471056
0.0086453977
0.008643872
0.0086421303
0.0086405828
0.0086390904
0.0086374581
0.0086358526
0.0086341514
0.0086324292
0.0086306756
0.0086288655
0.0086270202
0.0086251368
0.0086232346
0.0086213281
0.0086194335
0.0086175672
0.0086157412
0.0086139647
0.0086122438
0.0086105821
0.0086089816
0.0086074425
0.008605964
0.0086045445
0.008603182
0.008601874
0.0087602835
0.0087606613
0.0087630632
0.0087621528
0.0087617242
0.0087612738
0.0087606114
0.0087597227
0.0087585509
0.0087570384
0.008755131
0.0087527758
0.0087499251
0.0087465331
0.0087425593
0.0087380833
0.0087329288
0.0087271389
0.0087220174
0.0087161699
0.0087098873
0.0087055627
0.0086982398
0.0086917395
0.0086853632
0.0086803319
0.0086756878
0.0086703542
0.0086642559
0.0086602327
0.0086566384
0.0086535422
0.008649096
0.0086476001
0.0086458631
0.0086441702
0.0086427481
0.0086416565
0.0086398452
0.0086385415
0.0086374009
0.0086359191
0.0086345757
0.0086330214
0.0086314648
0.0086298729
0.0086281751
0.0086264255
0.0086246041
0.0086227463
0.0086208704
0.0086189965
0.0086171483
0.0086153409
0.0086135849
0.0086118869
0.0086102505
0.008608677
0.0086071662
0.0086057165
0.0086043261
0.0086029923
0.0086017125
0.0087561646
0.0087610332
0.0087660441
0.0087658001
0.0087655625
0.0087654279
0.0087650474
0.0087644074
0.0087634604
0.0087621423
0.0087603889
0.0087581323
0.0087553098
0.0087518485
0.0087476567
0.0087429411
0.0087371325
0.0087300575
0.0087255759
0.0087189739
0.0087099301
0.0087058788
0.0087048923
0.0086937129
0.0086808412
0.0086755419
0.0086715458
0.0086668755
0.0086610631
0.0086574806
0.008653688
0.0086472736
0.0086401292
0.0086420207
0.0086415681
0.0086402184
0.0086392687
0.0086396472
0.0086375085
0.0086365454
0.0086359006
0.008634419
0.0086333852
0.0086319098
0.0086305317
0.0086291449
0.008627548
0.0086258945
0.0086241113
0.0086222765
0.00862041
0.0086185358
0.0086166901
0.0086148906
0.0086131483
0.0086114694
0.0086098567
0.0086083104
0.008606829
0.0086054102
0.0086040511
0.0086027487
0.0086014998
0.0087418011
0.0087614068
0.0087670972
0.0087695172
0.0087695484
0.00876977
0.008769738
0.0087694069
0.0087687459
0.0087676884
0.0087661617
0.0087640824
0.0087613761
0.0087579378
0.0087535972
0.0087490055
0.0087425471
0.0087321572
0.0087265112
0.0087262245
0.0087092665
0.008698111
0.0086987733
0.0086323381
0.0086388696
0.0086394006
0.0086375305
0.0086339434
0.0086365042
0.0086327576
0.0086335801
0.008634854
0.0086331315
0.0086325172
0.0086308983
0.0086296486
0.0086285334
0.0086269975
0.0086254623
0.0086236805
0.0086218425
0.0086199575
0.0086180523
0.0086161891
0.0086143852
0.0086126497
0.008610987
0.0086093974
0.0086078793
0.0086064296
0.0086050443
0.0086037195
0.0086024515
0.0086012365
0.0087674185
0.00877184
0.0087740871
0.0087739692
0.0087744409
0.0087747443
0.0087747583
0.0087744432
0.0087737219
0.0087725106
0.0087707103
0.0087682299
0.0087648898
0.0087602963
0.0087560969
0.0087478558
0.0087382146
0.0087263897
0.0087230283
0.008632868
0.0086294962
0.0086288042
0.0086334323
0.0086295298
0.0086318395
0.0086300096
0.008628952
0.008628218
0.008626606
0.008625201
0.0086233272
0.0086214589
0.0086195258
0.0086175437
0.0086156359
0.0086138137
0.0086120795
0.0086104318
0.0086088671
0.0086073803
0.0086059657
0.0086046177
0.0086033311
0.0086021011
0.0086009234
0.008770033
0.0087743864
0.0087776752
0.0087781917
0.0087792041
0.0087799862
0.0087804449
0.0087805655
0.0087802847
0.0087795119
0.0087781245
0.0087759311
0.0087724113
0.0087666434
0.0087646073
0.008737631
0.0087222713
0.0086299172
0.0086249493
0.0086314413
0.0086262476
0.0086273548
0.0086285424
0.0086266247
0.0086254202
0.0086232079
0.0086211857
0.0086191362
0.0086169996
0.0086150142
0.0086131594
0.0086114233
0.0086097939
0.0086082589
0.0086068088
0.008605435
0.0086041297
0.008602886
0.0086016982
0.0086005615
0.0087702455
0.0087765188
0.0087811607
0.0087825081
0.0087841717
0.0087855119
0.0087864908
0.0087871381
0.0087874255
0.0087872748
0.0087865826
0.0087852074
0.0087828251
0.008778631
0.008776522
0.0086280212
0.0086232256
0.0086235293
0.0086288362
0.0086242797
0.0086258514
0.0086233045
0.0086210717
0.0086188518
0.0086163836
0.008614286
0.0086123945
0.0086106609
0.0086090588
0.0086075639
0.0086061601
0.0086048353
0.0086035794
0.0086023844
0.0086012437
0.0086001523
0.0087711765
0.0087790631
0.0087849
0.0087871185
0.0087894498
0.0087913676
0.0087929023
0.0087941331
0.0087950599
0.0087955613
0.0087955366
0.0087947523
0.0087926567
0.0087800362
0.0086244728
0.0086214783
0.0086267826
0.0086202925
0.0086205754
0.0086189119
0.0086157256
0.0086134062
0.0086114833
0.0086097696
0.0086082129
0.0086067744
0.0086054305
0.0086041653
0.0086029674
0.0086018277
0.0086007396
0.0085996978
0.0087740091
0.0087832346
0.008789427
0.008792267
0.0087951554
0.0087976045
0.0087997046
0.0088016018
0.0088033686
0.0088050193
0.0088074316
0.0088095889
0.0088102944
0.0086231789
0.0086199854
0.0086227741
0.0086181432
0.0086148249
0.0086122582
0.008610349
0.0086087142
0.0086072402
0.008605884
0.0086046184
0.0086034262
0.0086022958
0.0086012187
0.0086001886
0.0085992007
0.0087744624
0.0087859717
0.0087939351
0.0087977865
0.0088012381
0.0088041674
0.0088067722
0.008809266
0.0088117308
0.0088140603
0.0088168356
0.0088223417
0.008604136
0.0086109981
0.0086125611
0.0086104961
0.0086088507
0.0086074448
0.0086061279
0.0086048918
0.0086037272
0.0086026225
0.0086015694
0.0086005618
0.0085995948
0.0085986647
0.0087838082
0.008791552
0.0087998344
0.0088042593
0.0088079164
0.008811104
0.0088140762
0.0088170556
0.0088202447
0.0088241412
0.0088279645
0.0088359196
0.0085918413
0.0086119587
0.0086093215
0.0086086805
0.0086072964
0.0086060796
0.0086049301
0.0086038267
0.008602774
0.0086017657
0.0086007967
0.0085998637
0.0085989635
0.0085980942
0.0087769458
0.0087988105
0.0088011657
0.0088074127
0.008811722
0.0088151813
0.0088183379
0.0088215051
0.0088249688
0.0088297507
0.0088359504
0.0088381823
0.0086052705
0.0086066321
0.0086071073
0.008605687
0.0086046527
0.0086036765
0.0086027106
0.0086017756
0.0086008687
0.0085999879
0.0085991322
0.0085983011
0.0085974944
0.0090681665
0.0087869357
0.0088106771
0.008814901
0.0088173247
0.0088201141
0.0088228331
0.008825576
0.0088284855
0.0088317186
0.0088364908
0.0088353445
0.0085993903
0.008604058
0.0086052091
0.0086039688
0.008603177
0.0086023844
0.008601562
0.0086007484
0.0085999451
0.0085991534
0.0085983759
0.0085976143
0.0085968704
0.0090533956
0.009054837
0.0090655201
0.0088415636
0.0088283469
0.0088265628
0.0088266967
0.0088270459
0.0088284881
0.008830405
0.0088327159
0.0088354435
0.0088391085
0.0088436079
0.0088427007
0.0085984456
0.0086027573
0.0086037179
0.0086024478
0.0086017652
0.0086011075
0.0086004127
0.0085997136
0.0085990101
0.0085983053
0.0085976039
0.0085969101
0.0085962276
0.0090459243
0.0090463343
0.0090465656
0.0090465265
0.0090469143
0.0090448934
0.0088408786
0.0088460156
0.0088372718
0.0088364775
0.0088356453
0.0088354481
0.0088361518
0.0088374511
0.0088393231
0.008841874
0.0088475528
0.0088550135
0.0088652805
0.0085976282
0.0085996764
0.0086014991
0.0086007316
0.008600288
0.0085998122
0.0085992622
0.0085986806
0.0085980751
0.0085974536
0.0085968244
0.0085961948
0.0085955709
0.0090408709
0.0090411015
0.0090412312
0.0090412255
0.0090411237
0.0090407734
0.0090400005
0.0090395142
0.0090347652
0.0090273307
0.0090210927
0.0088668487
0.0088578049
0.0088555517
0.0088486599
0.0088459826
0.0088441582
0.0088432169
0.0088431097
0.0088436923
0.0088447672
0.0088468623
0.008849861
0.0088463179
0.0085980988
0.0085981982
0.0085998682
0.0085992339
0.0085989192
0.008598578
0.0085981509
0.0085976739
0.0085971566
0.0085966101
0.008596046
0.0085954744
0.0085949042
0.0090368857
0.009037102
0.0090371481
0.0090370275
0.0090367189
0.0090362198
0.0090354564
0.0090343113
0.0090331688
0.0090290999
0.0090292093
0.0090224946
0.0090143714
0.009014462
0.0088995549
0.0089012998
0.0088764007
0.0088685596
0.0088634581
0.0088576623
0.0088540974
0.0088516621
0.008850104
0.0088494165
0.0088494606
0.0088502313
0.008854988
0.0088627839
0.0088729833
0.0085974449
0.0085976684
0.0085985931
0.0085978573
0.0085976344
0.00859741
0.0085970927
0.0085967084
0.0085962675
0.0085957848
0.0085952758
0.0085947535
0.0085942305
0.0090325189
0.0090331115
0.0090334326
0.0090335191
0.0090333893
0.0090330463
0.009032474
0.0090316527
0.0090305258
0.0090289922
0.0090272075
0.00902408
0.0090216782
0.0090160316
0.0090145111
0.0090138104
0.0090051408
0.0090077915
0.0089261073
0.0089380915
0.0089214415
0.0088965009
0.0088900572
0.00888344
0.0088752123
0.0088699083
0.0088648479
0.0088609838
0.0088581495
0.0088560273
0.0088546981
0.0088537475
0.00885396
0.0088557954
0.0088520692
0.0085733192
0.0085857058
0.0085925922
0.0085956376
0.0085959678
0.0085962313
0.008596254
0.0085960834
0.0085957931
0.0085954179
0.008594986
0.0085945193
0.008594035
0.0085935505
0.0090268949
0.0090284399
0.0090294484
0.0090300029
0.0090302202
0.0090301647
0.0090298624
0.00902932
0.0090285264
0.0090274604
0.009026078
0.0090243078
0.0090221793
0.0090192854
0.0090163167
0.0090119398
0.0090092904
0.0090046515
0.0090013971
0.0090034789
0.008985783
0.0089747059
0.0089703189
0.0089609125
0.0089585987
0.0089562405
0.0089490978
0.0089353101
0.0089229961
0.0089230312
0.0089161198
0.0089057103
0.0088957621
0.008888426
0.0088815868
0.0088760646
0.0088710797
0.0088670014
0.0088637799
0.0088612794
0.008859455
0.0088578532
0.0088609351
0.0088686757
0.0088805959
0.0085881216
0.0085883128
0.0085925507
0.008594199
0.0085948198
0.008595215
0.0085953196
0.0085952152
0.0085949716
0.0085946296
0.0085942245
0.0085937816
0.0085933194
0.0085928632
0.009017373
0.0090224938
0.0090249178
0.0090260129
0.0090268487
0.0090272478
0.009027298
0.0090270707
0.0090265891
0.0090258599
0.0090248749
0.0090236156
0.0090220495
0.0090201307
0.0090178506
0.0090150582
0.0090120337
0.009008303
0.009004858
0.0090004896
0.0089967125
0.008991586
0.0089821828
0.008977659
0.0089724367
0.0089616899
0.008956923
0.0089521918
0.0089445792
0.0089382293
0.008931974
0.0089236344
0.0089172625
0.0089094804
0.0089007834
0.0088934675
0.008886943
0.0088813347
0.0088763689
0.0088721513
0.0088686308
0.0088657232
0.008863192
0.0088606061
0.0088610802
0.0088536694
0.0085778515
0.0085867084
0.0085895893
0.0085919073
0.0085933195
0.0085940748
0.008594479
0.0085945916
0.0085944949
0.0085942528
0.0085939082
0.008593503
0.0085930623
0.0085926021
0.0085921632
0.0089905623
0.0090104407
0.009017807
0.0090231019
0.0090239614
0.0090245952
0.0090248073
0.0090246579
0.0090242383
0.0090235717
0.0090226632
0.0090215064
0.009020086
0.0090183772
0.0090163494
0.0090139843
0.0090112207
0.0090081629
0.009004659
0.0090010473
0.0089969034
0.0089925107
0.0089872141
0.0089804157
0.0089751889
0.0089696191
0.0089621044
0.0089566861
0.0089512371
0.008944736
0.0089385847
0.0089323302
0.0089251253
0.0089183962
0.0089111717
0.0089038978
0.0088972989
0.0088912187
0.0088857763
0.0088808995
0.0088766164
0.0088729392
0.0088698315
0.0088670966
0.0088655949
0.0088675634
0.0088599031
0.0085822997
0.0085880286
0.0085890774
0.0085905681
0.0085921155
0.0085931591
0.0085937532
0.0085940419
0.0085940809
0.0085939283
0.008593639
0.0085932513
0.0085928173
0.0085923563
0.0085918706