/*--------------------------------*- C++ -*----------------------------------*\
| =========                 |                                                 |
| \\      /  F ield         | OpenFOAM: The Open Source CFD Toolbox           |
|  \\    /   O peration     | Version:  2412                                  |
|   \\  /    A nd           | Website:  www.openfoam.com                      |
|    \\/     M anipulation  |                                                 |
\*---------------------------------------------------------------------------*/
FoamFile
{
    version     2.0;
    format      ascii;
    arch        "LSB;label=32;scalar=64";
    class       surfaceScalarField;
    location    "15174";
    object      phi;
}
// * * * * * * * * * * * * * * * * * * * * * * * * * * * * * * * * * * * * * //

dimensions      [0 3 -1 0 0 0 0];

oriented        oriented;

internalField   nonuniform List<scalar> 
111177
(
-6.9116481e-24
5.7218775e-24
3.8992468e-24
-3.9509325e-24
-5.6701917e-24
-3.813651e-24
5.7325451e-24
-3.8481141e-24
-5.6629853e-24
5.6785325e-24
-3.6380672e-24
-5.6742741e-24
-3.6290972e-24
5.6775794e-24
-3.7554317e-24
-5.6925375e-24
-3.675248e-24
2.4468059e-24
-2.4332057e-24
-8.1131794e-24
8.1306859e-24
2.3933472e-24
-2.3686291e-24
-8.1554039e-24
8.2009634e-24
2.3357378e-24
-2.3095545e-24
-8.2271467e-24
2.4286472e-24
8.2946705e-24
2.3762552e-24
-8.3351878e-24
2.4483366e-24
-8.5191413e-24
-8.741119e-24
-1.4756049e-26
1.6679786e-26
-1.5005006e-26
1.8731328e-26
-1.5315145e-26
1.9414411e-26
-1.5660583e-26
1.9350768e-26
-1.6048363e-26
1.8975462e-26
-1.6489436e-26
1.8582173e-26
-1.6973996e-26
1.8205827e-26
-1.7478541e-26
1.7738135e-26
-1.7977915e-26
1.7069239e-26
-1.8445184e-26
1.6146605e-26
-1.8852729e-26
1.4973756e-26
-1.917332e-26
1.3571599e-26
-1.9380004e-26
1.1940727e-26
-1.9442002e-26
1.0066129e-26
-1.9336781e-26
8.0138927e-27
3.3545815e-27
-1.5096321e-26
1.7050681e-26
-1.5324167e-26
1.8959175e-26
-1.5537947e-26
1.9628191e-26
-1.5836247e-26
1.9649068e-26
-1.6241408e-26
1.9380624e-26
-1.6739709e-26
1.9080475e-26
-1.7304304e-26
1.8770422e-26
-1.7905793e-26
1.8339625e-26
-1.8519881e-26
1.7683328e-26
-1.9121374e-26
1.6748098e-26
-1.9679837e-26
1.5532219e-26
-2.0164019e-26
1.4055782e-26
-2.0555177e-26
1.2331886e-26
-2.0870892e-26
1.0381845e-26
-2.1225104e-26
8.3681059e-27
-2.4553735e-26
6.6832141e-27
5.8199015e-27
-1.5249423e-26
1.7511874e-26
-1.5396895e-26
1.9106647e-26
-1.5538234e-26
1.9769531e-26
-1.583083e-26
1.9941664e-26
-1.6287959e-26
1.9837754e-26
-1.6872325e-26
1.9664841e-26
-1.7543731e-26
1.9441829e-26
-1.8275426e-26
1.907132e-26
-1.9047076e-26
1.8454978e-26
-1.9837613e-26
1.7538636e-26
-2.0619836e-26
1.6314442e-26
-2.1364649e-26
1.4800596e-26
-2.2055691e-26
1.3022928e-26
-2.2706485e-26
1.1032641e-26
-2.3339146e-26
9.0007675e-27
-2.3931768e-26
7.2758377e-27
5.872285e-27
-1.5603138e-26
1.7135229e-26
-1.5308325e-26
1.8811835e-26
-1.5348959e-26
1.9810167e-26
-1.5683175e-26
2.027588e-26
-1.6235823e-26
2.0390403e-26
-1.6938334e-26
2.0367353e-26
-1.7748192e-26
2.0251688e-26
-1.8645082e-26
1.9968211e-26
-1.961661e-26
1.9426506e-26
-2.0647814e-26
1.8569842e-26
-2.1715031e-26
1.738166e-26
-2.2790384e-26
1.5875949e-26
-2.3853439e-26
1.4085984e-26
-2.4894884e-26
1.2074086e-26
-2.5869583e-26
9.9754678e-27
-2.6590945e-26
7.9972003e-27
1.9209523e-27
-1.5140761e-26
1.5025887e-26
-1.4590506e-26
1.826158e-26
-1.4824323e-26
2.0043985e-26
-1.5353305e-26
2.0804862e-26
-1.6067614e-26
2.1104712e-26
-1.6916806e-26
2.1216545e-26
-1.7882096e-26
2.1216978e-26
-1.8960958e-26
2.1047073e-26
-2.0152912e-26
2.0618461e-26
-2.1448583e-26
1.9865513e-26
-2.2828584e-26
1.8761662e-26
-2.4263555e-26
1.7310921e-26
-2.5724362e-26
1.5546792e-26
-2.7185167e-26
1.3534891e-26
-2.8618979e-26
1.140928e-26
-3.0088063e-26
9.4662861e-27
-3.6384921e-26
8.2178114e-27
7.9240729e-27
-9.6465278e-27
-1.2967702e-26
2.1582755e-26
-1.4158758e-26
2.1235041e-26
-1.4998418e-26
2.1644523e-26
-1.5850983e-26
2.1957278e-26
-1.6814426e-26
2.2179989e-26
-1.7916297e-26
2.2318849e-26
-1.916977e-26
2.2300547e-26
-2.0578462e-26
2.2027154e-26
-2.2136413e-26
2.1423465e-26
-2.3824364e-26
2.0449614e-26
-2.5610754e-26
1.9097311e-26
-2.7453634e-26
1.7389673e-26
-2.929895e-26
1.5380208e-26
-3.1059153e-26
1.3169484e-26
-3.2523525e-26
1.0930659e-26
-3.3091618e-26
8.7859047e-27
1.217061e-27
-1.4659862e-26
1.8509715e-26
-1.4419492e-26
2.0994672e-26
-1.4883517e-26
2.2108548e-26
-1.5645754e-26
2.2719516e-26
-1.6626002e-26
2.3160237e-26
-1.7817811e-26
2.3510659e-26
-1.921757e-26
2.3700307e-26
-2.0820472e-26
2.3630056e-26
-2.2616301e-26
2.3219295e-26
-2.458539e-26
2.2418703e-26
-2.6693419e-26
2.1205341e-26
-2.8890013e-26
1.9586267e-26
-3.1108846e-26
1.7599042e-26
-3.3254181e-26
1.531482e-26
-3.5186952e-26
1.286343e-26
-3.6892978e-26
1.0491932e-26
-4.4267882e-26
8.5919672e-27
7.6968762e-27
-1.1223302e-26
-1.3807416e-26
2.3578787e-26
-1.4655795e-26
2.2956928e-26
-1.540099e-26
2.3464711e-26
-1.6327102e-26
2.408635e-26
-1.7544578e-26
2.4728135e-26
-1.904954e-26
2.5205269e-26
-2.0810891e-26
2.5391408e-26
-2.2804055e-26
2.5212459e-26
-2.5006015e-26
2.4620665e-26
-2.7382696e-26
2.3582023e-26
-2.9877435e-26
2.2081007e-26
-3.241342e-26
2.0135027e-26
-3.4884153e-26
1.7785553e-26
-3.7117563e-26
1.5096842e-26
-3.8774929e-26
1.2149299e-26
-3.9133933e-26
8.9509722e-27
-4.5113648e-28
-1.5275874e-26
2.1230489e-26
-1.4992575e-26
2.267363e-26
-1.5186408e-26
2.3658545e-26
-1.582495e-26
2.4724892e-26
-1.7010809e-26
2.5913995e-26
-1.8595982e-26
2.6790442e-26
-2.0482056e-26
2.7277482e-26
-2.2625565e-26
2.7355969e-26
-2.5002056e-26
2.6997156e-26
-2.7575005e-26
2.6154972e-26
-3.0287227e-26
2.4793229e-26
-3.305785e-26
2.2905651e-26
-3.5788739e-26
2.0516443e-26
-3.836462e-26
1.7672724e-26
-4.0702396e-26
1.4487076e-26
-4.3014326e-26
1.1262903e-26
-5.2430565e-26
8.9651059e-27
2.7357027e-27
-1.2465681e-26
-1.4294331e-26
2.4502281e-26
-1.4444726e-26
2.380894e-26
-1.4866844e-26
2.514701e-26
-1.6118272e-26
2.7165425e-26
-1.7804659e-26
2.8476829e-26
-1.9794805e-26
2.9267628e-26
-2.2034488e-26
2.9595653e-26
-2.4507444e-26
2.9470111e-26
-2.7189719e-26
2.8837248e-26
-3.0017508e-26
2.7621019e-26
-3.2901086e-26
2.5789228e-26
-3.5733101e-26
2.334846e-26
-3.8387266e-26
2.032689e-26
-4.0706362e-26
1.6806173e-26
-4.2475036e-26
1.3031579e-26
-4.3158496e-26
9.6485672e-27
-4.7111465e-26
6.6886748e-27
1.7143575e-27
-1.0850184e-26
-1.3468968e-26
2.6427724e-26
-1.3521227e-26
2.519927e-26
-1.4939599e-26
2.8583797e-26
-1.6728986e-26
3.0266216e-26
-1.8771196e-26
3.1309839e-26
-2.1025879e-26
3.1850336e-26
-2.349568e-26
3.1939913e-26
-2.6183237e-26
3.1524805e-26
-2.9013486e-26
3.0451268e-26
-3.1882818e-26
2.8658561e-26
-3.4667446e-26
2.6133089e-26
-3.7216525e-26
2.2875969e-26
-3.9304108e-26
1.8893756e-26
-4.0480317e-26
1.4207789e-26
-3.965229e-26
8.8205413e-27
-3.5605354e-26
2.6417414e-27
-1.0030324e-26
-1.2244761e-26
-9.4783323e-27
-1.3920803e-26
3.3026268e-26
-1.5693444e-26
3.2038857e-26
-1.7622892e-26
3.3239287e-26
-1.9698244e-26
3.3925688e-26
-2.198027e-26
3.4221939e-26
-2.4537008e-26
3.4081542e-26
-2.7250802e-26
3.3165063e-26
-2.9979972e-26
3.1387731e-26
-3.2579609e-26
2.8732726e-26
-3.4895924e-26
2.5192286e-26
-3.6744746e-26
2.0742579e-26
-3.7888906e-26
1.535195e-26
-3.810254e-26
9.0341761e-27
-3.751896e-26
2.0581633e-27
-4.2747034e-26
-4.8022484e-27
-1.482559e-26
-1.0884412e-26
-1.515393e-26
3.6308376e-26
-1.6629443e-26
3.47148e-26
-1.8226964e-26
3.5523209e-26
-1.9984063e-26
3.5979039e-26
-2.2238793e-26
3.6336272e-26
-2.4711118e-26
3.5637389e-26
-2.717567e-26
3.3852283e-26
-2.9449768e-26
3.1006824e-26
-3.1355376e-26
2.7097894e-26
-3.2720138e-26
2.2107342e-26
-3.3363063e-26
1.5994876e-26
-3.3080408e-26
8.751522e-27
-3.1596284e-26
5.7404137e-28
-2.8448954e-26
-7.9495767e-27
-2.6986718e-26
-1.6287824e-26
-3.1521686e-26
-1.1236596e-26
-1.5890248e-26
3.9368453e-26
-1.6784711e-26
3.6417673e-26
-1.7480109e-26
3.6674437e-26
-1.9288725e-26
3.8144888e-26
-2.1415874e-26
3.7764537e-26
-2.3510893e-26
3.5947301e-26
-2.5329113e-26
3.2825045e-26
-2.6659357e-26
2.8428139e-26
-2.7312175e-26
2.2760161e-26
-2.7110284e-26
1.5792985e-26
-2.5850158e-26
7.4913968e-27
-2.3215858e-26
-2.0602563e-27
-1.8571502e-26
-1.2593931e-26
-1.1179547e-26
-2.3679777e-26
-6.5597335e-27
-3.6141498e-26
-5.4144315e-26
-1.1111978e-26
-1.5344376e-26
4.0650072e-26
-1.4312162e-26
3.5642222e-26
-1.5817328e-26
3.9650054e-26
-1.7527194e-26
3.9474403e-26
-1.9127642e-26
3.7547748e-26
-2.0359397e-26
3.4056801e-26
-2.0955423e-26
2.9024166e-26
-2.0704314e-26
2.2509052e-26
-1.94226e-26
1.4511272e-26
-1.6893547e-26
4.9623446e-27
-1.2834852e-26
-6.1189499e-27
-6.7820648e-27
-1.8646716e-26
1.9397975e-27
-3.2401637e-26
1.3242645e-26
-4.7444344e-26
2.3223152e-26
-6.4124821e-26
-8.4978064e-26
-1.2956327e-26
-6.2539032e-27
-1.2422711e-26
4.581886e-26
-1.3558733e-26
4.0610425e-26
-1.4399056e-26
3.8388071e-26
-1.4826951e-26
3.4484695e-26
-1.4475275e-26
2.8672492e-26
-1.3110553e-26
2.1144331e-26
-1.0570287e-26
1.1971006e-26
-6.5955216e-27
9.8757967e-28
-9.1830185e-28
-1.1796169e-26
6.7927859e-27
-2.6357802e-26
1.7035611e-26
-4.264446e-26
3.0276106e-26
-6.0684836e-26
4.6572267e-26
-8.0420981e-26
6.4763419e-26
-1.0316921e-25
8.5742691e-26
-1.3196164e-25
-1.6633223e-25
-5.8260649e-27
-1.0171105e-26
4.4955465e-26
-9.7846212e-27
3.8001588e-26
-9.1078542e-27
3.3807929e-26
-7.5001142e-27
2.7064752e-26
-4.7142797e-27
1.8358497e-26
-7.335663e-28
7.9902926e-27
4.8039482e-27
-4.5499348e-27
1.2195027e-26
-1.9187247e-26
2.1755392e-26
-3.5918167e-26
3.3827017e-26
-5.4716082e-26
4.8839879e-26
-7.5697695e-26
6.7388077e-26
-9.8969176e-26
8.9414473e-26
-1.2519561e-25
1.1262238e-25
-1.5516954e-25
1.3544286e-25
-1.8915271e-25
-2.30697e-25
-1.7932256e-27
-5.2263141e-27
4.1434677e-26
-3.5033625e-27
3.2084978e-26
-3.0182625e-28
2.3863216e-26
4.3796978e-27
1.3676972e-26
9.9941728e-27
2.3758171e-27
1.717886e-26
-1.1734623e-26
2.6337448e-26
-2.8345834e-26
3.7782566e-26
-4.7363284e-26
5.1857386e-26
-6.8790901e-26
6.8848273e-26
-9.268858e-26
8.9132761e-26
-1.1925366e-25
1.1274048e-25
-1.4880333e-25
1.391225e-25
-1.8155155e-25
1.6693851e-25
-2.1696872e-25
1.9039251e-25
-2.54151e-25
2.1841526e-25
-2.9564267e-25
-3.3707987e-25
4.4726732e-27
1.825831e-27
3.4731821e-26
6.9063326e-27
1.8782714e-26
1.4204925e-26
6.3783796e-27
2.1561958e-26
-4.9812172e-27
3.0438746e-26
-2.0611411e-26
4.1345616e-26
-3.9252705e-26
5.4662759e-26
-6.0680426e-26
7.0679013e-26
-8.4807153e-26
8.9668763e-26
-1.1167833e-25
1.1181612e-25
-1.4140102e-25
1.3712685e-25
-1.7411406e-25
1.6526308e-25
-2.0968778e-25
1.9601858e-25
-2.4772421e-25
2.2938237e-25
-2.8751479e-25
2.6278185e-25
-3.2904215e-25
2.9771964e-25
-3.7201765e-25
-4.2018772e-25
1.1155864e-26
1.4991748e-26
1.4946831e-26
2.4768314e-26
-3.398187e-27
3.3663482e-26
-1.3876387e-26
4.4360389e-26
-3.130832e-26
5.7071098e-26
-5.1963414e-26
7.2239502e-26
-7.584883e-26
9.0191945e-26
-1.027596e-25
1.1117936e-25
-1.3266574e-25
1.3537185e-25
-1.6559352e-25
1.6280915e-25
-2.0155136e-25
1.9347813e-25
-2.4035676e-25
2.2739306e-25
-2.8163913e-25
2.6476591e-25
-3.2488763e-25
3.0549527e-25
-3.6977151e-25
3.4926073e-25
-4.1578311e-25
3.9270371e-25
-4.636307e-25
4.2187499e-25
-5.2553859e-25
-5.6652144e-25
2.4241623e-26
3.6447338e-26
4.5894337e-26
-2.3323388e-26
5.8448157e-26
-4.3862141e-26
7.3248735e-26
-6.6763994e-26
9.0385775e-26
-9.298587e-26
1.1032241e-25
-1.2269623e-25
1.3338473e-25
-1.5572806e-25
1.5979299e-25
-1.9200178e-25
1.8965924e-25
-2.314176e-25
2.2310415e-25
-2.7380167e-25
2.6024943e-25
-3.1878442e-25
3.0118589e-25
-3.6582409e-25
3.4576323e-25
-4.1434885e-25
3.9401969e-25
-4.6403956e-25
4.4503918e-25
-5.1465018e-25
4.8675258e-25
-5.67252e-25
5.3146308e-25
-6.1123193e-25
-6.3906074e-25
5.779612e-26
7.2971401e-26
-5.9037424e-26
8.9641672e-26
-8.3434266e-26
1.0892101e-25
-1.1226521e-25
1.309496e-25
-1.4472481e-25
1.5618542e-25
-1.8096388e-25
1.8492111e-25
-2.2073747e-25
2.1739304e-25
-2.6388953e-25
2.5378261e-25
-3.1019123e-25
2.9425721e-25
-3.5925902e-25
3.3899656e-25
-4.1056344e-25
3.8804177e-25
-4.6339406e-25
4.4120512e-25
-5.1720291e-25
4.9776651e-25
-5.7121156e-25
5.540378e-25
-6.2352329e-25
6.1242627e-25
-6.6962039e-25
6.8917497e-25
-7.1580944e-25
-7.5903698e-25
8.6052645e-26
1.0690382e-25
-1.0428544e-25
1.277681e-25
-1.331295e-25
1.5195125e-25
-1.6890796e-25
1.7943483e-25
-2.0844746e-25
2.1060343e-25
-2.5190607e-25
2.4576068e-25
-2.9904677e-25
2.8517873e-25
-3.4960928e-25
3.2913696e-25
-4.0321725e-25
3.7785476e-25
-4.5928124e-25
4.3154816e-25
-5.1708745e-25
4.9020115e-25
-5.758559e-25
5.5361934e-25
-6.3462975e-25
6.2151203e-25
-6.9141598e-25
6.9722566e-25
-7.4533402e-25
7.8091203e-25
-7.9949581e-25
8.8299824e-25
-8.6112318e-25
8.8981832e-25
-9.7189452e-25
-9.9073643e-25
1.1969342e-25
1.4761725e-25
-1.6105334e-25
1.7326743e-25
-1.9455814e-25
2.0301671e-25
-2.3819674e-25
2.36642e-25
-2.8553136e-25
2.745075e-25
-3.3691228e-25
3.169714e-25
-3.9207318e-25
3.6438325e-25
-4.5062909e-25
4.1707095e-25
-5.1196894e-25
4.7527027e-25
-5.7528677e-25
5.3910736e-25
-6.39693e-25
6.086801e-25
-7.0420248e-25
6.8455152e-25
-7.672874e-25
7.6802364e-25
-8.2880613e-25
8.5879152e-25
-8.9026369e-25
9.5418553e-25
-9.5651719e-25
1.0218035e-24
-1.0395125e-24
1.1395269e-24
-1.1084598e-24
1.125455e-24
-1.2174647e-24
-1.2014785e-24
1.5919123e-25
1.9583316e-25
-2.3120007e-25
2.2696605e-25
-2.6932963e-25
2.6298458e-25
-3.2154989e-25
3.0348706e-25
-3.7741477e-25
3.4891275e-25
-4.3749886e-25
3.9967752e-25
-5.0139387e-25
4.5618403e-25
-5.6847545e-25
5.1867655e-25
-6.3777929e-25
5.8729549e-25
-7.0831193e-25
6.6213331e-25
-7.790403e-25
7.4365475e-25
-8.4880883e-25
8.3214542e-25
-9.1729679e-25
9.2674862e-25
-9.8486688e-25
1.0240975e-24
-1.053866e-24
1.112237e-24
-1.127652e-24
1.2009974e-24
-1.1972202e-24
1.2438772e-24
-1.2603445e-24
1.3230566e-24
-1.2806579e-24
-1.2393588e-24
2.0519051e-25
2.524127e-25
-3.1655182e-25
2.8970608e-25
-3.5884327e-25
3.3271395e-25
-4.2042263e-25
3.8092324e-25
-4.8570815e-25
4.3485883e-25
-5.5532945e-25
4.9498539e-25
-6.2860201e-25
5.615401e-25
-7.0433399e-25
6.3460784e-25
-7.8137967e-25
7.1410741e-25
-8.5853987e-25
8.0011823e-25
-9.3481965e-25
8.9241299e-25
-1.0095915e-24
9.9013014e-25
-1.082584e-24
1.0907362e-24
-1.154472e-24
1.1885429e-24
-1.2254588e-24
1.283575e-24
-1.2922523e-24
1.3703561e-24
-1.3471256e-24
1.4728084e-24
-1.3831102e-24
1.6611814e-24
-1.4277318e-24
1.5801619e-24
-1.5821562e-24
-1.4949418e-24
2.58394e-25
3.1817903e-25
-4.186283e-25
3.6230487e-25
-4.6454848e-25
4.1313027e-25
-5.3653355e-25
4.7003221e-25
-6.1223139e-25
5.3354241e-25
-6.9211222e-25
6.038824e-25
-7.7467397e-25
6.81077e-25
-8.5857427e-25
7.6498139e-25
-9.4244426e-25
8.5520226e-25
-1.0250405e-24
9.5119057e-25
-1.1055799e-24
1.0521424e-24
-1.1835359e-24
1.1564435e-24
-1.2587731e-24
1.2616725e-24
-1.3306879e-24
1.3670515e-24
-1.3976312e-24
1.4744505e-24
-1.4545246e-24
1.5952305e-24
-1.5038901e-24
1.7270516e-24
-1.5595529e-24
1.7902518e-24
-1.6453564e-24
1.9827796e-24
-1.6874696e-24
1.8712936e-24
-1.8261898e-24
-1.6700925e-24
3.1955164e-25
3.9374128e-25
-5.3873812e-25
4.4561406e-25
-5.8840633e-25
5.0537278e-25
-6.7199011e-25
5.7213812e-25
-7.5887755e-25
6.4591344e-25
-8.484493e-25
7.2688031e-25
-9.3954114e-25
8.1495884e-25
-1.0305228e-24
9.0951253e-25
-1.1195942e-24
1.0095874e-24
-1.2056548e-24
1.1142558e-24
-1.2882043e-24
1.2224532e-24
-1.3669704e-24
1.3331292e-24
-1.4413639e-24
1.4459424e-24
-1.5104443e-24
1.5630411e-24
-1.5716233e-24
1.6869344e-24
-1.6277835e-24
1.8116629e-24
-1.6842814e-24
1.9149554e-24
-1.7486489e-24
2.0327201e-24
-1.8052343e-24
2.0849898e-24
-1.8784596e-24
2.3070928e-24
-1.8921954e-24
2.0703493e-24
-1.9825342e-24
-1.6634904e-24
2.8258564e-24
-1.5213885e-24
-4.6503119e-25
4.117116e-24
3.8826199e-25
4.7997067e-25
-6.8011501e-25
5.4101521e-25
-7.3303465e-25
6.11075e-25
-8.2893734e-25
6.8782031e-25
-9.2519461e-25
7.7199954e-25
-1.0237204e-24
8.6409046e-25
-1.1226137e-24
9.6304827e-25
-1.218552e-24
1.0675426e-24
-1.3101491e-24
1.1763597e-24
-1.3970214e-24
1.2885508e-24
-1.4791615e-24
1.4034582e-24
-1.5562713e-24
1.5208217e-24
-1.6278078e-24
1.6418085e-24
-1.6926101e-24
1.7662365e-24
-1.7522115e-24
1.8902124e-24
-1.8082572e-24
2.0055392e-24
-1.8639757e-24
2.1171553e-24
-1.9168504e-24
2.2069543e-24
-1.9682586e-24
2.3098287e-24
-1.9950698e-24
2.3426951e-24
-2.0154007e-24
2.6467411e-24
-1.9675364e-24
2.3467176e-24
-2.0453056e-24
-1.6661108e-24
2.8223226e-24
-1.6184134e-24
4.0078655e-24
-5.213957e-25
3.2065876e-24
-7.2011063e-25
-6.8472582e-25
3.4262823e-24
4.6565411e-25
5.7897114e-25
-8.4635168e-25
6.5071996e-25
-9.0068616e-25
7.2942171e-25
-1.0038964e-24
8.1586876e-25
-1.1101674e-24
9.1189738e-25
-1.2186423e-24
1.0156944e-24
-1.322349e-24
1.1249496e-24
-1.4194044e-24
1.238123e-24
-1.5101947e-24
1.3542138e-24
-1.5952523e-24
1.4727199e-24
-1.6747774e-24
1.5933102e-24
-1.748398e-24
1.7163241e-24
-1.8156241e-24
1.840985e-24
-1.8768724e-24
1.965409e-24
-1.9326812e-24
2.0857706e-24
-1.9843372e-24
2.2005935e-24
-2.0316733e-24
2.3048304e-24
-2.0724955e-24
2.4081875e-24
-2.0984269e-24
2.5014856e-24
-2.1086988e-24
2.6278794e-24
-2.0939301e-24
2.6621707e-24
-2.079597e-24
3.0075137e-24
-2.0114538e-24
2.6140761e-24
-2.0930149e-24
-1.6144826e-24
2.9263756e-24
-1.5425773e-24
4.1404887e-24
-4.4455209e-25
3.2282611e-24
-7.0618578e-25
3.3562275e-24
-6.4936211e-25
3.3439206e-24
-7.0780368e-25
-7.3484386e-25
3.3940386e-24
5.5417067e-25
6.9412337e-25
-1.0406389e-24
7.701494e-25
-1.0799224e-24
8.5722673e-25
-1.1972448e-24
9.5787495e-25
-1.3192905e-24
1.0673228e-24
-1.4317969e-24
1.1818281e-24
-1.5339097e-24
1.2993755e-24
-1.627742e-24
1.4192506e-24
-1.7151275e-24
1.5409805e-24
-1.7965073e-24
1.6642875e-24
-1.871705e-24
1.7890245e-24
-1.9403611e-24
1.914618e-24
-2.002466e-24
2.0399062e-24
-2.0579694e-24
2.1629447e-24
-2.1073758e-24
2.2818524e-24
-2.150581e-24
2.395185e-24
-2.185828e-24
2.5061506e-24
-2.2093925e-24
2.6155739e-24
-2.2181221e-24
2.7319889e-24
-2.210345e-24
2.8375436e-24
-2.1851517e-24
2.9772138e-24
-2.1511239e-24
3.013189e-24
-2.1289901e-24
3.4537863e-24
-2.0550799e-24
3.150478e-24
-2.2979876e-24
2.677645e-24
-2.4631755e-24
-1.4045153e-24
2.971609e-24
-1.5566064e-24
4.2427586e-24
-3.8898958e-25
3.3262578e-24
-6.260765e-25
3.4540912e-24
-5.7238544e-25
3.3915406e-24
-6.4363518e-25
3.4014207e-24
-6.5924225e-25
3.3881502e-24
-6.9453318e-25
-7.2707091e-25
3.3803773e-24
6.6199336e-25
8.1150468e-25
-1.2294337e-24
8.9464551e-25
-1.2803856e-24
1.0026754e-24
-1.4273204e-24
1.1191725e-24
-1.5482939e-24
1.2389358e-24
-1.653673e-24
1.3605407e-24
-1.749347e-24
1.4836516e-24
-1.8382384e-24
1.608129e-24
-1.9209846e-24
1.733788e-24
-1.997364e-24
1.8603234e-24
-2.0668965e-24
1.9871737e-24
-2.1293163e-24
2.1136681e-24
-2.1844638e-24
2.2385919e-24
-2.2322995e-24
2.3606353e-24
-2.2726244e-24
2.479153e-24
-2.3043457e-24
2.5954836e-24
-2.3257231e-24
2.7114565e-24
-2.334095e-24
2.8297728e-24
-2.3286613e-24
2.9504843e-24
-2.3058632e-24
3.0771343e-24
-2.2777739e-24
3.1904209e-24
-2.2422767e-24
3.3548626e-24
-2.2195216e-24
3.3333238e-24
-2.2764487e-24
3.1118787e-24
-2.2417304e-24
3.628323e-24
-1.9209596e-24
2.9700404e-24
-1.8155491e-24
-1.0140531e-24
2.7614317e-24
-1.6816543e-24
3.5555421e-24
-8.2626512e-26
4.4174295e-24
-2.7826722e-25
3.4322718e-24
-5.714487e-25
3.5518129e-24
-5.0853065e-25
3.4879252e-24
-5.6218877e-25
3.4910068e-24
-5.7546701e-25
3.4575355e-24
-6.1016392e-25
3.4354424e-24
-6.3714915e-25
3.4085862e-24
-6.6767696e-25
-6.9865318e-25
3.3801684e-24
7.4855461e-25
9.3013611e-25
-1.4619671e-24
1.0510659e-24
-1.5482503e-24
1.1754166e-24
-1.6726445e-24
1.2982217e-24
-1.7764782e-24
1.4221012e-24
-1.8732265e-24
1.5474904e-24
-1.9636276e-24
1.6740907e-24
-2.0475849e-24
1.8015704e-24
-2.1248437e-24
1.9296228e-24
-2.1949489e-24
2.0577812e-24
-2.2574747e-24
2.1854604e-24
-2.312143e-24
2.3117894e-24
-2.3586285e-24
2.4358633e-24
-2.3966983e-24
2.5572272e-24
-2.4257096e-24
2.6761441e-24
-2.44464e-24
2.7940292e-24
-2.4519801e-24
2.9121932e-24
-2.4468253e-24
3.0331554e-24
-2.4268254e-24
3.1541483e-24
-2.3987668e-24
3.2720218e-24
-2.3601502e-24
3.3817993e-24
-2.3292991e-24
3.4091471e-24
-2.3037965e-24
3.3864056e-24
-2.218989e-24
3.4940076e-24
-2.0285615e-24
3.5166202e-24
-1.8381617e-24
4.1569212e-24
-1.6543541e-24
3.6646554e-24
-1.9017274e-24
3.052558e-24
-2.017833e-24
-6.7586631e-25
2.8706393e-24
-1.57477e-24
3.6904525e-24
4.4880277e-26
4.5765902e-24
-1.601852e-25
3.4172851e-24
-5.2234917e-25
3.6621629e-24
-3.2750424e-25
3.7324854e-24
-3.4858978e-25
3.6228297e-24
-4.61793e-25
3.6025445e-24
-4.8824544e-25
3.5605202e-24
-5.2016446e-25
3.5311544e-24
-5.461012e-25
3.4961342e-24
-5.7514372e-25
3.4632383e-24
-6.042532e-25
3.429834e-24
-6.3427274e-25
-6.6466026e-25
3.3958411e-24
8.5438092e-25
1.1205018e-24
-1.8143712e-24
1.2439884e-24
-1.796131e-24
1.362149e-24
-1.8946388e-24
1.48443e-24
-1.9955074e-24
1.6105641e-24
-2.0897617e-24
1.7386337e-24
-2.1756544e-24
1.8674948e-24
-2.2537048e-24
1.9966243e-24
-2.3240784e-24
2.1257259e-24
-2.3865763e-24
2.2542621e-24
-2.4406793e-24
2.381607e-24
-2.4859734e-24
2.5069978e-24
-2.522089e-24
2.6298512e-24
-2.548563e-24
2.7499965e-24
-2.5647854e-24
2.8679008e-24
-2.5698843e-24
2.9842457e-24
-2.5631702e-24
3.1007227e-24
-2.5433024e-24
3.2149893e-24
-2.5130334e-24
3.3259222e-24
-2.4710831e-24
3.4223891e-24
-2.4257661e-24
3.4857617e-24
-2.367169e-24
3.5396039e-24
-2.2728311e-24
3.6399948e-24
-2.1289525e-24
3.7663586e-24
-1.9645255e-24
3.9674463e-24
-1.8554417e-24
3.9207641e-24
-1.8550453e-24
3.6662121e-24
-1.763281e-24
4.3650276e-24
-1.3746819e-24
4.0517797e-24
-1.3986355e-24
3.8371356e-24
-1.759872e-24
3.6924632e-24
-1.7029607e-24
3.421643e-24
-1.4184948e-24
2.788437e-24
-5.1780397e-25
8.7741559e-25
2.8307464e-24
-1.5170013e-24
3.4469142e-24
-1.9802218e-25
3.717134e-24
3.0969545e-25
3.9745428e-24
3.3248545e-25
4.6992898e-24
-1.1087989e-25
3.5496049e-24
-4.2508508e-25
3.8105608e-24
-2.1607561e-25
3.8842473e-24
-2.3387163e-25
3.7166136e-24
-3.5471554e-25
3.7297432e-24
-3.406338e-25
3.7370925e-24
-3.5593904e-25
3.6853772e-24
-4.1007771e-25
3.6438332e-24
-4.4670144e-25
3.6021151e-24
-4.7844641e-25
3.5644312e-24
-5.0841729e-25
3.5277259e-24
-5.3843837e-25
3.4924256e-24
-5.6895295e-25
3.457769e-24
-5.9961615e-25
-6.301866e-25
3.4232954e-24
1.312235e-24
-1.662555e-24
1.3376722e-24
-1.8215682e-24
1.4272674e-24
-1.984234e-24
1.5438785e-24
-2.1121185e-24
1.6708749e-24
-2.2167582e-24
1.800761e-24
-2.3055405e-24
1.9309645e-24
-2.3839083e-24
2.0609882e-24
-2.4541021e-24
2.1907062e-24
-2.5162943e-24
2.3197713e-24
-2.5697444e-24
2.4476846e-24
-2.6138867e-24
2.5737964e-24
-2.6482009e-24
2.6975028e-24
-2.6722694e-24
2.8183538e-24
-2.6856364e-24
2.9361532e-24
-2.6876837e-24
3.0509652e-24
-2.6779822e-24
3.1634289e-24
-2.6557662e-24
3.2721813e-24
-2.6217858e-24
3.3765663e-24
-2.575468e-24
3.4703831e-24
-2.5195829e-24
3.5513351e-24
-2.448121e-24
3.6321196e-24
-2.3536156e-24
3.7340582e-24
-2.2308911e-24
3.8596316e-24
-2.0900989e-24
3.9835021e-24
-1.9793123e-24
4.0104497e-24
-1.8819928e-24
3.9942547e-24
-1.7470861e-24
4.1647865e-24
-1.5452137e-24
4.2626143e-24
-1.4964633e-24
4.0779784e-24
-1.5752361e-24
3.8479401e-24
-1.4729224e-24
3.5838142e-24
-1.154369e-24
3.5903301e-24
-5.2431982e-25
4.5637305e-24
-9.5984802e-26
4.1230015e-24
-2.3275479e-25
3.9648417e-24
-5.7627678e-25
4.0120251e-24
-4.0471425e-25
4.0212294e-24
-2.9627352e-25
4.0221157e-24
-2.0350787e-25
4.020052e-24
-1.251824e-25
4.0160347e-24
-6.074966e-26
4.0103872e-24
-9.1379669e-27
4.0026078e-24
3.0926136e-26
3.9897207e-24
6.2338269e-26
3.9597654e-24
9.4396301e-26
3.9111447e-24
1.562714e-25
4.000453e-24
2.8309238e-25
4.031458e-24
1.44526e-25
4.4586328e-24
-3.2967664e-25
3.5064399e-24
-5.6480835e-25
3.6165368e-24
-3.0811906e-25
3.8724617e-24
5.3770547e-26
4.0966332e-24
1.08314e-25
4.0671239e-24
-8.1370608e-26
3.8744646e-24
-2.3242577e-25
3.8798824e-24
-2.2149342e-25
3.8800217e-24
-2.3401088e-25
3.8100034e-24
-2.8469732e-25
3.7765621e-24
-3.0719244e-25
3.752359e-24
-3.3173599e-25
3.7122717e-24
-3.6999036e-25
3.6712766e-24
-4.0570636e-25
3.6316534e-24
-4.3882316e-25
3.5941844e-24
-4.7094835e-25
3.5583442e-24
-5.0259814e-25
3.523549e-24
-5.3415773e-25
3.4892992e-24
-5.6536642e-25
-5.9605498e-25
3.4551676e-24
1.1880182e-24
1.3544373e-24
-1.9879874e-24
1.465324e-24
-2.0951207e-24
1.5962656e-24
-2.24306e-24
1.7287617e-24
-2.3492543e-24
1.8608113e-24
-2.4375901e-24
1.9920326e-24
-2.5151296e-24
2.1225316e-24
-2.5846011e-24
2.2524524e-24
-2.6462152e-24
2.3816034e-24
-2.6988954e-24
2.509723e-24
-2.7420062e-24
2.6361564e-24
-2.7746342e-24
2.7603694e-24
-2.7964825e-24
2.88172e-24
-2.806987e-24
2.999791e-24
-2.8057547e-24
3.1141198e-24
-2.7923109e-24
3.2245457e-24
-2.7661921e-24
3.3303226e-24
-2.7275627e-24
3.430862e-24
-2.6760074e-24
3.5236074e-24
-2.6123283e-24
3.6095255e-24
-2.534039e-24
3.6946561e-24
-2.4387462e-24
3.7883003e-24
-2.3245353e-24
3.8934537e-24
-2.1952523e-24
3.9870887e-24
-2.0729473e-24
4.047306e-24
-1.9422101e-24
4.0966863e-24
-1.7964663e-24
4.1911398e-24
-1.6396671e-24
4.2325555e-24
-1.537879e-24
4.1330194e-24
-1.4757e-24
3.9902557e-24
-1.3301587e-24
3.8934119e-24
-1.0575252e-24
4.0459818e-24
-6.7688972e-25
4.3556586e-24
-4.0566157e-25
4.5040682e-24
-3.8116443e-25
4.4072448e-24
-4.7945336e-25
4.3956443e-24
-3.9311377e-25
4.3902194e-24
-2.908486e-25
4.3835468e-24
-1.9683532e-25
4.3749386e-24
-1.165742e-25
4.3645321e-24
-5.034315e-26
4.3524666e-24
2.9275467e-27
4.3383055e-24
4.5087206e-26
4.3207745e-24
7.9869298e-26
4.3004755e-24
1.1469533e-25
4.2980938e-24
1.5865311e-25
4.3869921e-24
1.941941e-25
4.435891e-24
9.5627048e-26
4.2542108e-24
-1.479964e-25
3.9714173e-24
-2.8201486e-25
3.8710245e-24
-2.0772621e-25
3.9560066e-24
-3.1211619e-26
4.0554862e-24
8.834412e-27
4.0430439e-24
-6.8928342e-26
3.9595348e-24
-1.4891668e-25
3.9168521e-24
-1.7881066e-25
3.8857677e-24
-2.0292644e-25
3.8389986e-24
-2.3792826e-25
3.8000348e-24
-2.6822861e-25
3.7669877e-24
-2.9868895e-25
3.7307007e-24
-3.3370336e-25
3.6936409e-24
-3.6864656e-25
3.6573591e-24
-4.0254131e-25
3.6221045e-24
-4.3569373e-25
3.5876985e-24
-4.6819215e-25
3.5536967e-24
-5.0015595e-25
3.5197843e-24
-5.3145402e-25
-5.620322e-25
3.4857615e-24
1.1817365e-24
1.5119829e-24
-2.4253671e-24
1.6567974e-24
-2.3878745e-24
1.7884965e-24
-2.4809534e-24
1.9191707e-24
-2.5682644e-24
2.0501914e-24
-2.6461503e-24
2.1809057e-24
-2.7153153e-24
2.310785e-24
-2.7760945e-24
2.4398082e-24
-2.8279186e-24
2.5676988e-24
-2.8698968e-24
2.6941389e-24
-2.9010743e-24
2.8184937e-24
-2.9208373e-24
2.9402137e-24
-2.9287069e-24
3.0586128e-24
-2.9241537e-24
3.1731314e-24
-2.9068295e-24
3.2832531e-24
-2.8763139e-24
3.3881972e-24
-2.8325068e-24
3.4873552e-24
-2.7751654e-24
3.579649e-24
-2.7046221e-24
3.6656814e-24
-2.6200714e-24
3.7479769e-24
-2.5210416e-24
3.8305647e-24
-2.4071231e-24
3.9153977e-24
-2.2800853e-24
3.9908828e-24
-2.1484324e-24
4.054474e-24
-2.0058013e-24
4.1122365e-24
-1.8542288e-24
4.1726513e-24
-1.700082e-24
4.1979878e-24
-1.5632155e-24
4.1583848e-24
-1.4360969e-24
4.1003532e-24
-1.2721271e-24
4.0932296e-24
-1.0504015e-24
4.213665e-24
-7.9732507e-25
4.4027561e-24
-5.9475265e-25
4.5178503e-24
-4.9625867e-25
4.5024675e-24
-4.6407061e-25
4.4873008e-24
-3.7794697e-25
4.4752823e-24
-2.7883019e-25
4.4637679e-24
-1.8532086e-25
4.4514682e-24
-1.042745e-25
4.4381481e-24
-3.7023027e-26
4.4239757e-24
1.709987e-26
4.4093077e-24
5.9755195e-26
4.3954594e-24
9.3717619e-26
4.387439e-24
1.2271577e-25
4.3988613e-24
1.4723077e-25
4.4422504e-24
1.5080505e-25
4.4472201e-24
9.0657288e-26
4.3247496e-24
-2.5525808e-26
4.1395768e-24
-9.6842122e-26
4.0171755e-24
-8.5324933e-26
4.008783e-24
-2.2819035e-26
4.0296294e-24
-1.2012055e-26
4.0132977e-24
-5.2596641e-26
3.9661848e-24
-1.0180369e-25
3.9239508e-24
-1.365767e-25
3.8879252e-24
-1.6690085e-25
3.8499177e-24
-1.9992075e-25
3.8143727e-24
-2.3268363e-25
3.781489e-24
-2.6580527e-25
3.74813e-24
-3.0034434e-25
3.714373e-24
-3.3488956e-25
3.6806827e-24
-3.6885099e-25
3.6471183e-24
-4.0212929e-25
3.613644e-24
-4.3471788e-25
3.5800573e-24
-4.6656925e-25
3.5462622e-24
-4.9765891e-25
-5.2790498e-25
3.512135e-24
1.7056273e-24
-2.1504454e-24
1.7486187e-24
-2.430866e-24
1.8524758e-24
-2.5848105e-24
1.9746032e-24
-2.6903917e-24
2.1040394e-24
-2.7755865e-24
2.2350754e-24
-2.8463512e-24
2.3652603e-24
-2.9062794e-24
2.494028e-24
-2.9566863e-24
2.6214917e-24
-2.9973606e-24
2.7474798e-24
-3.0270624e-24
2.8716819e-24
-3.0450394e-24
2.9934729e-24
-3.050498e-24
3.1121899e-24
-3.0428708e-24
3.2271874e-24
-3.021827e-24
3.3377257e-24
-2.9868522e-24
3.4430305e-24
-2.9378116e-24
3.5423882e-24
-2.8745231e-24
3.6349301e-24
-2.797164e-24
3.7206744e-24
-2.7058157e-24
3.8002177e-24
-2.6005849e-24
3.8751785e-24
-2.4820838e-24
3.9463676e-24
-2.3512745e-24
4.009638e-24
-2.2117028e-24
4.0658714e-24
-2.0620347e-24
4.1162808e-24
-1.9046382e-24
4.1599967e-24
-1.7437978e-24
4.182891e-24
-1.5861099e-24
4.1764414e-24
-1.4296473e-24
4.1635354e-24
-1.2592211e-24
4.1812944e-24
-1.0681606e-24
4.255024e-24
-8.7105471e-25
4.3577409e-24
-6.974695e-25
4.4295515e-24
-5.6806928e-25
4.4390265e-24
-4.7354558e-25
4.4312388e-24
-3.7015929e-25
4.4194297e-24
-2.6702114e-25
4.4067528e-24
-1.7264388e-25
4.3936867e-24
-9.1208436e-26
4.3802532e-24
-2.3589503e-26
4.3665991e-24
3.0753917e-26
4.3533346e-24
7.3019705e-26
4.3420647e-24
1.0498755e-25
4.3362872e-24
1.2849324e-25
4.3406249e-24
1.4289312e-25
4.3510615e-24
1.4036844e-25
4.3337347e-24
1.0798407e-25
4.25516e-24
5.3048911e-26
4.1451642e-24
1.3153736e-26
4.0569206e-24
2.9185933e-27
4.0234309e-24
1.0670694e-26
4.0115312e-24
-1.1234066e-28
3.9902591e-24
-3.1324497e-26
3.956882e-24
-6.842665e-26
3.9224746e-24
-1.0216926e-25
3.8900777e-24
-1.3450397e-25
3.8578178e-24
-1.6766085e-25
3.8262738e-24
-2.0113959e-25
3.7953994e-24
-2.3493092e-25
3.7641308e-24
-2.6907572e-25
3.7323178e-24
-3.0307654e-25
3.7000658e-24
-3.3659898e-25
3.6674463e-24
-3.6950984e-25
3.6344601e-24
-4.0173159e-25
3.6011016e-24
-4.3321076e-25
3.5673493e-24
-4.6390668e-25
-4.9377662e-25
3.533221e-24
1.4345193e-24
1.7735796e-24
-2.7699264e-24
1.9004953e-24
-2.7117262e-24
2.0226686e-24
-2.812565e-24
2.1519544e-24
-2.9048723e-24
2.2841713e-24
-2.9785681e-24
2.4152078e-24
-3.0373159e-24
2.5439373e-24
-3.0854158e-24
2.670769e-24
-3.1241924e-24
2.7960939e-24
-3.1523873e-24