/*--------------------------------*- C++ -*----------------------------------*\
| =========                 |                                                 |
| \\      /  F ield         | OpenFOAM: The Open Source CFD Toolbox           |
|  \\    /   O peration     | Version:  2412                                  |
|   \\  /    A nd           | Website:  www.openfoam.com                      |
|    \\/     M anipulation  |                                                 |
\*---------------------------------------------------------------------------*/
FoamFile
{
    version     2.0;
    format      ascii;
    arch        "LSB;label=32;scalar=64";
    class       volVectorField;
    location    "15174";
    object      U;
}
// * * * * * * * * * * * * * * * * * * * * * * * * * * * * * * * * * * * * * //

dimensions      [0 1 -1 0 0 0 0];

internalField   nonuniform List<vector> 
57382
(
(7.8899219e-07 5.276702e-07 2.9450096e-24)
(8.1465336e-07 5.3922872e-07 -4.1379848e-26)
(8.1061552e-07 5.3709927e-07 4.7311107e-26)
(8.3184256e-07 5.4313103e-07 -1.4560787e-26)
(8.2920184e-07 5.422896e-07 -4.8686491e-26)
(8.5005579e-07 5.4343983e-07 -1.830322e-27)
(8.5213322e-07 5.4337098e-07 4.8803923e-28)
(8.4207239e-07 5.4116021e-07 -4.3914338e-27)
(8.4744885e-07 5.4024821e-07 1.1124219e-27)
(1.2117648e-06 3.6347956e-07 8.1939841e-28)
(1.2183017e-06 3.5608408e-07 -1.1355237e-27)
(1.2146697e-06 3.6769671e-07 8.0598111e-28)
(1.2209829e-06 3.4654155e-07 -7.9578719e-27)
(1.2186226e-06 3.5909158e-07 1.4459656e-27)
(1.2185559e-06 3.4820727e-07 2.2694148e-26)
(1.2167711e-06 3.6155921e-07 2.4883852e-27)
(1.2137204e-06 3.4919536e-07 2.546596e-26)
(1.2061705e-06 3.4937664e-07 5.5509375e-26)
(-2.0339983e-09 2.408493e-09 7.7993519e-25)
(-2.1114206e-09 2.5001902e-09 -1.6468918e-25)
(-2.1867214e-09 2.5755551e-09 -1.8333922e-26)
(-2.2646153e-09 2.6348518e-09 1.0400962e-25)
(-2.3436033e-09 2.6740044e-09 2.2193153e-27)
(-2.4230453e-09 2.6870241e-09 -2.0445589e-26)
(-2.5026446e-09 2.6683436e-09 -6.78052e-27)
(-2.582055e-09 2.6125543e-09 3.8281993e-27)
(-2.6604938e-09 2.5149785e-09 -8.2411337e-28)
(-2.7367125e-09 2.3727422e-09 1.8348843e-27)
(-2.8091346e-09 2.1856269e-09 -3.2179001e-27)
(-2.8759021e-09 1.9568436e-09 1.6002493e-27)
(-2.934114e-09 1.6947877e-09 5.1635528e-27)
(-2.9806486e-09 1.4166904e-09 1.2475622e-25)
(-3.0282481e-09 1.1534257e-09 -9.520699e-26)
(-3.0627509e-09 9.4915639e-10 -1.0334004e-24)
(-2.0755866e-09 2.4821417e-09 -7.1598887e-26)
(-2.1431098e-09 2.570805e-09 -7.8854744e-26)
(-2.2131756e-09 2.6446343e-09 7.0976946e-26)
(-2.2913085e-09 2.7071314e-09 -1.8579763e-26)
(-2.3734153e-09 2.7499799e-09 1.8794351e-26)
(-2.4589285e-09 2.7662979e-09 -7.9685626e-27)
(-2.547512e-09 2.7501307e-09 -3.3937697e-27)
(-2.6389024e-09 2.6957298e-09 -1.4817389e-28)
(-2.7324097e-09 2.5981224e-09 -5.3556108e-29)
(-2.826828e-09 2.454224e-09 -2.7766321e-28)
(-2.9205459e-09 2.2637667e-09 1.0809602e-27)
(-3.0115779e-09 2.0301514e-09 5.9803538e-27)
(-3.0971099e-09 1.7622636e-09 -4.6062496e-26)
(-3.1734681e-09 1.4785394e-09 -5.6586149e-26)
(-3.2401724e-09 1.2159116e-09 -5.6024157e-26)
(-3.2832082e-09 9.9295395e-10 6.7400176e-25)
(-3.3310026e-09 9.4686291e-10 1.0179559e-24)
(-2.0803188e-09 2.545243e-09 2.1868644e-25)
(-2.1423098e-09 2.6340417e-09 -1.6992258e-26)
(-2.2117213e-09 2.7130954e-09 3.4429276e-26)
(-2.2928532e-09 2.7824136e-09 -4.3264392e-26)
(-2.380601e-09 2.8319784e-09 2.0908764e-26)
(-2.47504e-09 2.8546716e-09 -4.0432796e-27)
(-2.5761896e-09 2.8442603e-09 1.3581398e-27)
(-2.6841127e-09 2.794666e-09 9.5504736e-28)
(-2.7983807e-09 2.7005694e-09 -1.1616533e-29)
(-2.9179072e-09 2.5585502e-09 1.1093975e-27)
(-3.0409918e-09 2.3681109e-09 -1.5919386e-27)
(-3.1653026e-09 2.1326131e-09 -9.8630776e-27)
(-3.2875795e-09 1.8609291e-09 3.2601927e-26)
(-3.4025582e-09 1.5707425e-09 -8.6953431e-26)
(-3.5008944e-09 1.2937866e-09 4.7509534e-26)
(-3.5873504e-09 1.0765187e-09 -1.2049402e-27)
(-3.6282591e-09 9.1908552e-10 3.8914825e-25)
(-2.0608002e-09 2.6086976e-09 2.7435936e-25)
(-2.120231e-09 2.7017802e-09 -7.0972653e-26)
(-2.1909586e-09 2.7885273e-09 -4.9185871e-26)
(-2.2774603e-09 2.8668368e-09 2.7788553e-27)
(-2.3734141e-09 2.9258173e-09 8.5134743e-27)
(-2.4797229e-09 2.9583472e-09 -2.1657335e-27)
(-2.5971454e-09 2.9578029e-09 -4.0989071e-28)
(-2.7263075e-09 2.9176209e-09 -5.3815869e-28)
(-2.8671962e-09 2.8319758e-09 -5.8350601e-28)
(-3.0189161e-09 2.6968852e-09 -4.1013956e-28)
(-3.17966e-09 2.5112846e-09 1.789682e-27)
(-3.3466352e-09 2.2779717e-09 3.68694e-27)
(-3.5157275e-09 2.0049125e-09 1.4838882e-27)
(-3.6806877e-09 1.707583e-09 -6.6906042e-27)
(-3.8318342e-09 1.4108162e-09 6.6606038e-28)
(-3.9601645e-09 1.1439878e-09 1.0738157e-26)
(-4.0598801e-09 8.9253606e-10 6.3935698e-25)
(-2.0295248e-09 2.6782724e-09 -3.4389695e-25)
(-2.0842148e-09 2.7732464e-09 1.8352731e-25)
(-2.155538e-09 2.8679865e-09 -1.9708218e-26)
(-2.2475912e-09 2.9575641e-09 3.3577337e-26)
(-2.3525628e-09 3.0292551e-09 -1.2832714e-26)
(-2.471674e-09 3.0758598e-09 -4.1156307e-28)
(-2.6067792e-09 3.0902541e-09 7.258031e-28)
(-2.7592215e-09 3.0651319e-09 7.9403487e-28)
(-2.9294785e-09 2.9939317e-09 -1.7004967e-28)
(-3.1169163e-09 2.8718203e-09 -4.3372632e-28)
(-3.3196912e-09 2.6967846e-09 -8.7034133e-28)
(-3.5346873e-09 2.4705847e-09 -4.3742417e-27)
(-3.7572394e-09 2.1998394e-09 -2.2236928e-28)
(-3.980817e-09 1.8977291e-09 7.6542224e-27)
(-4.1972026e-09 1.586072e-09 2.8435985e-26)
(-4.3896038e-09 1.2977989e-09 -3.6576747e-26)
(-4.5553472e-09 1.020821e-09 -6.2746217e-25)
(-4.6978847e-09 9.7183074e-10 1.2663698e-24)
(-1.9804465e-09 2.7472055e-09 -4.484924e-24)
(-2.0213186e-09 2.8364534e-09 6.6758973e-25)
(-2.1126893e-09 2.9505883e-09 -2.6719866e-26)
(-2.2051656e-09 3.0533174e-09 1.7607413e-27)
(-2.3181188e-09 3.1423218e-09 -1.762325e-26)
(-2.448868e-09 3.2081392e-09 3.4588885e-27)
(-2.6006482e-09 3.2432848e-09 3.8614659e-28)
(-2.7757409e-09 3.2395148e-09 -2.9764929e-27)
(-2.9750697e-09 3.18932e-09 3.2728012e-28)
(-3.1982337e-09 3.0867833e-09 -2.9135654e-28)
(-3.4433059e-09 2.9286438e-09 -1.9782085e-27)
(-3.7067444e-09 2.7152728e-09 -2.4210911e-28)
(-3.9831175e-09 2.4516853e-09 1.7539198e-28)
(-4.2647895e-09 2.1489835e-09 -1.0287033e-26)
(-4.5411275e-09 1.8265872e-09 1.8028604e-26)
(-4.7923454e-09 1.5152925e-09 -3.7409704e-27)
(-5.017671e-09 1.2526268e-09 -9.2819385e-27)
(-5.169405e-09 9.9879733e-10 -7.0393507e-25)
(-1.9843869e-09 2.8944972e-09 1.2422655e-24)
(-2.0592321e-09 3.0289612e-09 -1.9743569e-26)
(-2.1517133e-09 3.1516629e-09 -6.3476683e-26)
(-2.2700469e-09 3.2627835e-09 -1.2067769e-26)
(-2.4093689e-09 3.3529125e-09 -1.1088524e-26)
(-2.574375e-09 3.4148625e-09 8.2073357e-28)
(-2.76889e-09 3.4389896e-09 -3.7523272e-27)
(-2.9941855e-09 3.4164852e-09 1.5196827e-27)
(-3.2499334e-09 3.3401281e-09 3.7841751e-27)
(-3.5340168e-09 3.2051933e-09 -1.8985404e-27)
(-3.8424557e-09 3.0102857e-09 4.2685966e-28)
(-4.1690778e-09 2.7582604e-09 -3.7622375e-28)
(-4.5051512e-09 2.4575182e-09 -5.3920151e-27)
(-4.8390576e-09 2.1235721e-09 9.3642358e-28)
(-5.1539915e-09 1.7803322e-09 3.1322567e-27)
(-5.4254986e-09 1.4557649e-09 1.0906372e-26)
(-5.6602507e-09 1.1222004e-09 3.2210454e-25)
(-5.8004348e-09 1.0497945e-09 -9.025467e-25)
(-1.9342694e-09 2.9770904e-09 5.4745165e-25)
(-1.9862865e-09 3.1086309e-09 -7.8488257e-25)
(-2.099061e-09 3.2556164e-09 6.4361544e-26)
(-2.2120866e-09 3.387101e-09 3.6193386e-26)
(-2.3531824e-09 3.5060043e-09 -1.0619966e-26)
(-2.5246227e-09 3.6010382e-09 -2.0443747e-27)
(-2.7325776e-09 3.6595965e-09 1.0535913e-26)
(-2.9782028e-09 3.6712151e-09 1.2101899e-27)
(-3.2606652e-09 3.6272018e-09 -2.7748944e-27)
(-3.5772886e-09 3.5212882e-09 3.0139252e-27)
(-3.9235783e-09 3.3500717e-09 2.7945206e-28)
(-4.2925735e-09 3.1138168e-09 -2.2428715e-27)
(-4.6743981e-09 2.8178052e-09 2.0942961e-27)
(-5.0560072e-09 2.4733871e-09 3.2340182e-27)
(-5.4195343e-09 2.0994275e-09 4.8188056e-27)
(-5.7362466e-09 1.722977e-09 1.7697947e-26)
(-5.9924635e-09 1.3841283e-09 3.7177361e-26)
(-6.1458178e-09 1.0591932e-09 2.8767672e-25)
(-1.9605775e-09 3.1847027e-09 1.9911413e-27)
(-2.0459109e-09 3.3528631e-09 3.1870511e-25)
(-2.1467421e-09 3.5105585e-09 -6.2692062e-26)
(-2.279508e-09 3.6626044e-09 1.291266e-26)
(-2.4479636e-09 3.7967567e-09 -1.1223345e-26)
(-2.6620147e-09 3.8953291e-09 -2.766254e-26)
(-2.9206255e-09 3.9466236e-09 -4.3974795e-27)
(-3.2218034e-09 3.940338e-09 4.4179724e-27)
(-3.5618801e-09 3.8685094e-09 4.816496e-27)
(-3.9358069e-09 3.7255414e-09 1.6248281e-27)
(-4.3360726e-09 3.5085623e-09 -1.5882668e-27)
(-4.7518532e-09 3.2196004e-09 -2.2664717e-27)
(-5.1692665e-09 2.8658046e-09 -4.0755761e-27)
(-5.570524e-09 2.4602517e-09 -2.0932774e-26)
(-5.9304138e-09 2.0219745e-09 -1.4071326e-26)
(-6.2216875e-09 1.5720417e-09 -8.554325e-26)
(-6.4194395e-09 1.1288371e-09 -2.9771458e-25)
(-6.4430068e-09 9.5528748e-10 1.9615199e-24)
(-1.9197403e-09 3.2746101e-09 -5.4615793e-25)
(-1.9711886e-09 3.4510832e-09 -1.787187e-25)
(-2.0833474e-09 3.637942e-09 -4.688368e-26)
(-2.1894968e-09 3.8147987e-09 -1.4731188e-25)
(-2.3423342e-09 3.9929119e-09 7.0693958e-26)
(-2.5553266e-09 4.1368001e-09 4.8893804e-26)
(-2.8183559e-09 4.232831e-09 5.3298782e-26)
(-3.1285074e-09 4.2689293e-09 -9.2968617e-27)
(-3.4805651e-09 4.2353684e-09 5.6858067e-27)
(-3.8690281e-09 4.1242613e-09 -1.0703761e-27)
(-4.2859071e-09 3.9291538e-09 -2.0793529e-27)
(-4.719187e-09 3.6488536e-09 2.9763575e-27)
(-5.1535343e-09 3.2871177e-09 1.3638811e-27)
(-5.5693579e-09 2.8537198e-09 -4.1468095e-27)
(-5.9414603e-09 2.3664643e-09 -2.6201743e-26)
(-6.2402776e-09 1.8539215e-09 2.5898832e-26)
(-6.4293864e-09 1.3722438e-09 -3.5598686e-27)
(-6.5117344e-09 8.7251243e-10 -4.9348037e-26)
(-6.2795086e-09 4.4325794e-10 5.9649259e-25)
(-1.9258086e-09 3.5419546e-09 -6.7792591e-25)
(-1.9903224e-09 3.7306328e-09 -3.7603724e-25)
(-2.0893346e-09 3.9502787e-09 1.202889e-25)
(-2.2072118e-09 4.1746674e-09 -9.2380396e-26)
(-2.4154555e-09 4.3701711e-09 -1.1572815e-25)
(-2.6742495e-09 4.5157599e-09 1.0366472e-26)
(-2.9819538e-09 4.5985595e-09 -1.9854451e-26)
(-3.3319884e-09 4.6069051e-09 1.0210965e-27)
(-3.7189436e-09 4.5306649e-09 -6.172382e-27)
(-4.1350776e-09 4.3586988e-09 -2.9959875e-27)
(-4.5670553e-09 4.0864123e-09 -4.1808896e-27)
(-4.9979279e-09 3.7140181e-09 9.3230891e-27)
(-5.4058083e-09 3.2472402e-09 -5.5288428e-28)
(-5.7639247e-09 2.6984869e-09 1.1956914e-26)
(-6.0400853e-09 2.089044e-09 5.0616903e-27)
(-6.1950569e-09 1.452921e-09 -1.9404535e-26)
(-6.1931254e-09 8.217367e-10 9.0607906e-26)
(-5.911485e-09 1.4081298e-10 1.1570258e-25)
(-1.9475315e-09 3.824233e-09 5.1891792e-24)
(-1.9585431e-09 4.0670205e-09 1.1324662e-24)
(-2.0472505e-09 4.3223142e-09 -1.2957468e-25)
(-2.2612196e-09 4.582372e-09 1.4566208e-25)
(-2.5041762e-09 4.7797692e-09 7.1288462e-27)
(-2.7935429e-09 4.9118927e-09 1.0046099e-25)
(-3.1223612e-09 4.9653524e-09 -2.1897696e-26)
(-3.4871525e-09 4.927152e-09 2.6948233e-27)
(-3.882466e-09 4.7785615e-09 4.7926179e-27)
(-4.2925238e-09 4.5122863e-09 -1.5388952e-26)
(-4.6983404e-09 4.1250946e-09 -1.4855836e-26)
(-5.0759002e-09 3.6181036e-09 -5.3359019e-27)
(-5.3968533e-09 2.9982638e-09 -1.9313835e-26)
(-5.6301806e-09 2.2772165e-09 -7.9191612e-27)
(-5.7380575e-09 1.4714589e-09 9.7174297e-27)
(-5.6645892e-09 6.0409633e-10 -9.2361923e-26)
(-5.3636686e-09 -2.8758772e-10 5.626327e-25)
(-4.6740221e-09 -1.0543766e-09 7.7734715e-25)
(-1.9958523e-09 4.4485252e-09 4.053731e-25)
(-2.1130564e-09 4.75008e-09 -3.4418431e-25)
(-2.3368633e-09 5.0092255e-09 -1.1669421e-25)
(-2.5855329e-09 5.1921457e-09 -8.6707734e-26)
(-2.8657323e-09 5.2912448e-09 -3.9593532e-27)
(-3.1806008e-09 5.2943104e-09 4.7530485e-26)
(-3.5322519e-09 5.1679407e-09 -8.0066909e-27)
(-3.8977661e-09 4.9044754e-09 -8.1060574e-27)
(-4.2555752e-09 4.4967346e-09 6.2608586e-27)
(-4.5769375e-09 3.9417518e-09 1.8070021e-26)
(-4.8297673e-09 3.2425961e-09 -3.9221695e-27)
(-4.9803645e-09 2.4073389e-09 -8.9094641e-27)
(-4.9903064e-09 1.4488496e-09 -6.0070988e-27)
(-4.8107787e-09 3.8898572e-10 -1.9176406e-27)
(-4.3866238e-09 -7.4282117e-10 6.4214859e-26)
(-3.6540147e-09 -1.936826e-09 -5.8638358e-25)
(-2.451693e-09 -3.1859216e-09 -1.6211102e-24)
(-2.0640015e-09 4.8897546e-09 2.5305424e-24)
(-2.1643629e-09 5.1782286e-09 -2.8123786e-25)
(-2.3840021e-09 5.414467e-09 8.4287627e-26)
(-2.5824073e-09 5.5582684e-09 1.5624174e-25)
(-2.8109098e-09 5.6071436e-09 2.6078856e-27)
(-3.0953423e-09 5.5020434e-09 -3.1805848e-26)
(-3.3930187e-09 5.2378389e-09 -2.4215081e-26)
(-3.6800806e-09 4.8031968e-09 1.0623367e-26)
(-3.9211103e-09 4.1891453e-09 -6.2104682e-27)
(-4.0774414e-09 3.396762e-09 -1.1650076e-26)
(-4.1131091e-09 2.4322592e-09 -6.4030568e-27)
(-3.9898258e-09 1.3039556e-09 2.6968781e-26)
(-3.663349e-09 2.7234751e-11 -2.4518321e-26)
(-3.0859898e-09 -1.3754839e-09 8.9060067e-26)
(-2.1873796e-09 -2.8811459e-09 -1.0645191e-25)
(-9.6403127e-10 -4.5495251e-09 -1.0398853e-25)
(8.3579541e-10 -6.2779538e-09 2.3953277e-24)
(-2.0675748e-09 5.2852636e-09 -5.6741296e-25)
(-2.1423536e-09 5.588199e-09 3.7653521e-25)
(-2.2916161e-09 5.7519395e-09 -2.7178004e-26)
(-2.3905057e-09 5.835219e-09 -3.5616715e-26)
(-2.5905459e-09 5.7517858e-09 3.7643438e-26)
(-2.7971784e-09 5.4854613e-09 2.3741178e-26)
(-2.9916153e-09 5.0187343e-09 -9.0904329e-27)
(-3.12952e-09 4.3336079e-09 2.1038439e-26)
(-3.1620036e-09 3.4310194e-09 -1.8999062e-28)
(-3.0515047e-09 2.3191239e-09 1.0890088e-26)
(-2.7610708e-09 1.002886e-09 2.0341498e-26)
(-2.2469542e-09 -5.0691051e-10 -5.2541178e-27)
(-1.4632155e-09 -2.1970098e-09 1.8051787e-26)
(-3.4928367e-10 -4.0523882e-09 -4.5724261e-27)
(1.1390207e-09 -6.0875543e-09 1.1708092e-26)
(3.0861304e-09 -8.3295157e-09 -2.2155298e-25)
(5.7536007e-09 -1.0846024e-08 5.7187147e-25)
(-1.9999184e-09 5.6588403e-09 -1.475358e-24)
(-1.9525644e-09 5.8330335e-09 -4.4466603e-25)
(-1.9343908e-09 5.947102e-09 -2.1474825e-25)
(-2.0534109e-09 5.8871691e-09 -1.2869512e-26)
(-2.1434933e-09 5.6195384e-09 1.3307194e-26)
(-2.2216971e-09 5.1182478e-09 7.9817598e-27)
(-2.2340604e-09 4.3488735e-09 -3.1925965e-26)
(-2.1143991e-09 3.3159628e-09 -2.1763036e-27)
(-1.8270069e-09 2.035151e-09 -6.8282196e-27)
(-1.3389691e-09 5.079885e-10 -4.2282488e-27)
(-6.0666472e-10 -1.2581765e-09 2.306951e-26)
(4.1505332e-10 -3.2589445e-09 -5.3787501e-26)
(1.7834973e-09 -5.4922103e-09 -1.9572434e-26)
(3.5509347e-09 -7.9711519e-09 9.9629295e-26)
(5.8237127e-09 -1.0706588e-08 9.6791228e-26)
(8.8189081e-09 -1.3789784e-08 3.0923411e-25)
(1.1710439e-08 -1.7881005e-08 4.7889416e-26)
(1.5037899e-08 -2.2137331e-08 -1.5082655e-24)
(-1.6429618e-09 5.8894245e-09 2.3556364e-24)
(-1.5114231e-09 5.8726496e-09 6.9561803e-25)
(-1.4777613e-09 5.602525e-09 5.5089845e-26)
(-1.4123822e-09 5.0757214e-09 -4.5093923e-26)
(-1.2759828e-09 4.2093398e-09 2.1863053e-26)
(-9.7071929e-10 3.0228558e-09 2.0571652e-26)
(-4.7172827e-10 1.5524304e-09 -1.274221e-27)
(2.4116464e-10 -2.0798699e-10 1.9721723e-26)
(1.2147777e-09 -2.250886e-09 -2.9373095e-26)
(2.4925664e-09 -4.579058e-09 4.1511227e-26)
(4.1258155e-09 -7.1993465e-09 -1.2186336e-26)
(6.1660173e-09 -1.0131279e-08 -9.8913244e-26)
(8.6777272e-09 -1.3397742e-08 4.0011015e-26)
(1.1680793e-08 -1.7093335e-08 -5.9280042e-26)
(1.5049868e-08 -2.1489183e-08 6.7182252e-26)
(1.9086189e-08 -2.6261539e-08 6.5509807e-27)
(2.3990867e-08 -3.1870623e-08 3.7197873e-25)
(-1.0968988e-09 5.6625949e-09 -4.7383221e-24)
(-7.9026381e-10 5.4194381e-09 -3.9877862e-25)
(-5.9767602e-10 4.8685389e-09 9.1665424e-26)
(-2.9928568e-10 3.8849015e-09 -1.8469193e-26)
(2.3407782e-10 2.5185215e-09 3.5710546e-26)
(9.8574548e-10 8.4253442e-10 2.9311818e-27)
(1.95095e-09 -1.1679675e-09 -4.3443753e-26)
(3.1859633e-09 -3.5017306e-09 -8.9226566e-27)
(4.734106e-09 -6.1682678e-09 1.4180835e-26)
(6.6461589e-09 -9.177326e-09 -3.1669813e-26)
(8.969202e-09 -1.254865e-08 -2.0263321e-27)
(1.1751225e-08 -1.6306364e-08 -2.066771e-26)
(1.5007797e-08 -2.0511382e-08 -4.7667179e-27)
(1.8723687e-08 -2.5234264e-08 3.4604634e-26)
(2.3051591e-08 -3.0512811e-08 -1.4351628e-26)
(2.7417854e-08 -3.5779363e-08 6.9031664e-25)
(3.1298594e-08 -4.1008218e-08 -8.395113e-25)
(3.6580938e-08 -4.6411295e-08 -2.0217474e-24)
(-2.1088028e-10 5.0360523e-09 1.80325e-24)
(2.0666762e-10 4.5525341e-09 -6.9971266e-25)
(6.4470699e-10 3.3702932e-09 -2.3897119e-26)
(1.4791935e-09 1.7818291e-09 1.512541e-25)
(2.5255729e-09 -1.1876509e-10 -9.3048074e-26)
(3.765863e-09 -2.3889755e-09 1.5417292e-26)
(5.2801161e-09 -5.0224737e-09 4.0032099e-26)
(7.1081417e-09 -8.0353832e-09 -3.8860201e-27)
(9.3052838e-09 -1.1439961e-08 -2.113918e-27)
(1.1918112e-08 -1.5249176e-08 1.4688113e-26)
(1.4986399e-08 -1.9479899e-08 -5.8370862e-28)
(1.8528287e-08 -2.4154639e-08 3.8516262e-26)
(2.2534967e-08 -2.9270772e-08 -9.3839892e-27)
(2.6969556e-08 -3.475983e-08 -3.533244e-26)
(3.1612817e-08 -4.0430893e-08 3.8060268e-26)
(3.6711837e-08 -4.6346827e-08 -9.8507583e-26)
(4.3079444e-08 -5.2513719e-08 2.4889005e-25)
(5.0630526e-08 -6.0185886e-08 -2.7590983e-25)
(7.3249256e-10 3.9504406e-09 7.0375957e-25)
(1.6915625e-09 2.6412493e-09 -2.0765395e-26)
(2.7706271e-09 7.9420794e-10 9.0543189e-26)
(4.111997e-09 -1.3656874e-09 -1.9148466e-25)
(5.6554728e-09 -3.8853317e-09 3.6567508e-26)
(7.4693453e-09 -6.8166092e-09 -8.5486245e-26)
(9.5882635e-09 -1.0182732e-08 9.313744e-26)
(1.2078046e-08 -1.3988277e-08 3.2535928e-26)
(1.4989174e-08 -1.8240273e-08 -1.6198671e-26)
(1.8360697e-08 -2.2942518e-08 -8.4614664e-27)
(2.2216691e-08 -2.8095091e-08 -2.63298e-28)
(2.6561379e-08 -3.3673152e-08 -2.429181e-26)
(3.1379659e-08 -3.9614735e-08 1.8337978e-26)
(3.6629786e-08 -4.5813563e-08 -1.5523034e-26)
(4.2488721e-08 -5.2249342e-08 2.6216549e-26)
(4.9346001e-08 -5.9280163e-08 -1.8093701e-26)
(5.6105366e-08 -6.6085503e-08 6.9609635e-25)
(6.1948861e-08 -7.3079784e-08 7.3523964e-25)
(6.9318298e-08 -7.979576e-08 2.5489652e-24)
(3.0242348e-09 1.2729444e-09 -3.3196061e-24)
(4.0963556e-09 -6.844157e-10 -9.8375711e-25)
(5.6204064e-09 -2.9595524e-09 -5.2423821e-26)
(7.5827641e-09 -5.6987132e-09 1.7131729e-25)
(9.7235146e-09 -8.9000567e-09 -2.0636144e-26)
(1.2148375e-08 -1.2611167e-08 -3.6901807e-26)
(1.4942838e-08 -1.6823756e-08 -7.5121035e-26)
(1.8165061e-08 -2.1529513e-08 -1.3016801e-26)
(2.1860886e-08 -2.6718713e-08 1.101085e-26)
(2.6063407e-08 -3.2375092e-08 -1.5595435e-27)
(3.079253e-08 -3.8463461e-08 7.9669456e-27)
(3.6058427e-08 -4.4926295e-08 8.5840436e-27)
(4.1869963e-08 -5.1686909e-08 6.5848544e-27)
(4.8294587e-08 -5.8679369e-08 -5.0237529e-27)
(5.5308974e-08 -6.5916865e-08 -3.2877218e-26)
(6.2447e-08 -7.3187238e-08 -5.075771e-26)
(6.9969516e-08 -8.0584158e-08 5.0478615e-27)
(7.8374591e-08 -8.7353134e-08 -3.0959194e-25)
(8.8552104e-08 -9.4195363e-08 6.6357409e-25)
(7.4019049e-09 -5.0088665e-09 9.0583269e-25)
(9.5957278e-09 -7.7821574e-09 3.5309001e-26)
(1.2046492e-08 -1.1308015e-08 4.3333437e-26)
(1.4773968e-08 -1.5342257e-08 -6.2583391e-26)
(1.7877842e-08 -1.9957344e-08 -7.4743455e-27)
(2.1422079e-08 -2.5130153e-08 3.838642e-26)
(2.5459029e-08 -3.0830823e-08 -9.2976421e-27)
(3.003183e-08 -3.702909e-08 1.0529073e-26)
(3.5174564e-08 -4.3683099e-08 -9.5248156e-27)
(4.0914948e-08 -5.0731657e-08 2.2617133e-27)
(4.7278396e-08 -5.8099647e-08 -1.9487738e-27)
(5.4299173e-08 -6.5705586e-08 2.3844003e-27)
(6.1946996e-08 -7.3488052e-08 -1.7170812e-28)
(7.0095027e-08 -8.1292329e-08 1.4429415e-26)
(7.8970251e-08 -8.8995477e-08 -7.9860967e-26)
(8.8782538e-08 -9.680649e-08 5.194956e-26)
(9.9759311e-08 -1.0429678e-07 -2.6341002e-25)
(1.1211118e-07 -1.1490454e-07 -2.6263609e-24)
(1.1683335e-08 -1.0383922e-08 1.3202535e-24)
(1.4394362e-08 -1.394101e-08 6.3990415e-25)
(1.7462516e-08 -1.8397568e-08 -5.4467523e-26)
(2.0870929e-08 -2.340694e-08 8.164202e-26)
(2.4739944e-08 -2.9054742e-08 -3.5492485e-26)
(2.9128312e-08 -3.5293233e-08 4.9505607e-26)
(3.408415e-08 -4.2074445e-08 1.2246132e-27)
(3.9655212e-08 -4.9349017e-08 -3.8880403e-27)
(4.588557e-08 -5.7050564e-08 1.7016682e-27)
(5.2814405e-08 -6.5097429e-08 -3.7014295e-27)
(6.0475121e-08 -7.339677e-08 7.3614423e-27)
(6.8869314e-08 -8.1864852e-08 2.9771849e-27)
(7.799018e-08 -9.0392912e-08 -1.3451895e-26)
(8.7952739e-08 -9.8895139e-08 6.0548362e-26)
(9.8670969e-08 -1.0752961e-07 -1.0645336e-25)
(1.1057313e-07 -1.1656527e-07 -5.5348653e-26)
(1.2203352e-07 -1.2475539e-07 4.7593842e-25)
(1.3179233e-07 -1.3454775e-07 9.0798942e-26)
(1.4392809e-07 -1.437577e-07 3.0124048e-25)
(1.6821714e-08 -1.7142782e-08 1.4875346e-25)
(2.0125449e-08 -2.1642031e-08 -6.359683e-25)
(2.3914864e-08 -2.7191673e-08 -5.067008e-26)
(2.8104225e-08 -3.3318173e-08 -1.4003584e-26)
(3.2843411e-08 -4.0113926e-08 -3.0595923e-26)
(3.8185517e-08 -4.7518105e-08 -2.7976727e-27)
(4.4185638e-08 -5.5467705e-08 8.4459155e-27)
(5.0903581e-08 -6.3890513e-08 6.3632162e-27)
(5.8392868e-08 -7.2696673e-08 7.2813094e-28)
(6.6692646e-08 -8.17815e-08 -4.0148662e-27)
(7.581606e-08 -9.1045008e-08 -1.5298767e-27)
(8.5770593e-08 -1.0038919e-07 -1.1973768e-26)
(9.6584652e-08 -1.0974077e-07 -1.1205507e-27)
(1.0811419e-07 -1.1911227e-07 2.7680188e-26)
(1.202188e-07 -1.2833022e-07 1.2731201e-26)
(1.3234332e-07 -1.3748318e-07 6.0603578e-26)
(1.4485976e-07 -1.4734174e-07 1.0554313e-26)
(1.5928945e-07 -1.5643544e-07 -1.1847121e-24)
(1.7270226e-07 -1.6962416e-07 1.8294743e-24)
(1.8451366e-07 -1.7804808e-07 2.8086243e-25)
(2.2920069e-08 -2.5548021e-08 5.0648829e-24)
(2.6897295e-08 -3.1142745e-08 -8.2904059e-26)
(3.1520199e-08 -3.7944482e-08 1.0431493e-25)
(3.6597954e-08 -4.5304867e-08 -5.5058795e-27)
(4.2312469e-08 -5.3357299e-08 1.4929777e-26)
(4.8729463e-08 -6.203226e-08 -6.4490512e-27)
(5.5919031e-08 -7.1241654e-08 -1.1118561e-27)
(6.3950092e-08 -8.0882601e-08 -2.5342081e-28)
(7.2868859e-08 -9.0830431e-08 -5.4019496e-28)
(8.2688206e-08 -1.0096321e-07 7.921169e-28)
(9.3403014e-08 -1.1116967e-07 2.0431189e-26)
(1.0498895e-07 -1.2136163e-07 -3.1240198e-26)
(1.1732274e-07 -1.3149298e-07 2.4407307e-26)
(1.3025798e-07 -1.4144155e-07 3.451227e-26)
(1.4360751e-07 -1.5125577e-07 1.9400555e-26)
(1.5752718e-07 -1.6124792e-07 1.6635958e-26)
(1.7239037e-07 -1.7203159e-07 4.9715317e-26)
(1.8587731e-07 -1.823896e-07 -2.0005224e-26)
(1.9988748e-07 -1.9032332e-07 1.3017299e-25)
(2.1570397e-07 -2.0085911e-07 -1.7224217e-24)
(3.0088414e-08 -3.5861034e-08 -1.1302705e-24)
(3.4843802e-08 -4.2723783e-08 2.9462386e-25)
(4.0411015e-08 -5.0884379e-08 -3.582415e-26)
(4.6468068e-08 -5.9592897e-08 -2.9633201e-26)
(5.3269174e-08 -6.9026017e-08 -8.3701815e-27)
(6.0902238e-08 -7.9083582e-08 -2.3221533e-27)
(6.9447984e-08 -8.9634057e-08 -2.2007047e-27)
(7.8959426e-08 -1.0051798e-07 1.1116677e-27)
(8.9442067e-08 -1.1158371e-07 -2.7105091e-28)
(1.0087384e-07 -1.2269812e-07 5.2068998e-27)
(1.1320272e-07 -1.3375233e-07 -2.7058072e-27)
(1.2631877e-07 -1.4466645e-07 6.4960972e-27)
(1.4009922e-07 -1.55355e-07 -4.6082457e-27)
(1.5442515e-07 -1.6582751e-07 -7.6103292e-27)
(1.6925423e-07 -1.7617598e-07 2.1863188e-26)
(1.8436669e-07 -1.86503e-07 -1.3730666e-26)
(1.9917627e-07 -1.9634227e-07 6.4817911e-28)
(2.147435e-07 -2.0560534e-07 -1.3777691e-26)
(2.2881559e-07 -2.125623e-07 4.6616523e-26)
(2.4055867e-07 -2.2133455e-07 1.9828857e-25)
(2.5539057e-07 -2.2851809e-07 1.1865416e-24)
(3.8509495e-08 -4.8366463e-08 2.4895546e-24)
(4.4103156e-08 -5.6570114e-08 5.1234524e-26)
(5.0682826e-08 -6.6223314e-08 2.3610659e-26)
(5.7818596e-08 -7.64354e-08 6.7259149e-27)
(6.5847634e-08 -8.7389809e-08 8.8775414e-27)
(7.4875845e-08 -9.8927904e-08 -3.828889e-27)
(8.4954632e-08 -1.108219e-07 2.8039516e-27)
(9.6071831e-08 -1.2287948e-07 -5.566154e-27)
(1.0818799e-07 -1.3494287e-07 1.7762357e-27)
(1.2123251e-07 -1.4687895e-07 -7.3722467e-28)
(1.3509491e-07 -1.5858711e-07 -8.5333537e-27)
(1.4965095e-07 -1.6998514e-07 9.5829544e-28)
(1.6477415e-07 -1.810462e-07 -1.7009e-26)
(1.8034928e-07 -1.9177391e-07 2.5684585e-26)
(1.961654e-07 -2.0214738e-07 -4.1896712e-26)
(2.1194931e-07 -2.1181741e-07 4.8982559e-26)
(2.277045e-07 -2.2052662e-07 -8.1353453e-26)
(2.427226e-07 -2.283572e-07 -2.5471216e-26)
(2.5777375e-07 -2.3634916e-07 1.0388763e-25)
(2.7400206e-07 -2.4213255e-07 -2.8736453e-25)
(2.8909735e-07 -2.5240773e-07 8.257923e-25)
(3.0363123e-07 -2.5743447e-07 2.5154718e-24)
(4.8235327e-08 -6.319408e-08 -1.3629502e-24)
(5.4710078e-08 -7.2884914e-08 2.9333615e-26)
(6.2414336e-08 -8.4248825e-08 -7.0459821e-27)
(7.0782302e-08 -9.6145758e-08 2.4269051e-28)
(8.0252184e-08 -1.0874811e-07 1.5708019e-26)
(9.0879832e-08 -1.2172828e-07 -2.0555995e-26)
(1.0260796e-07 -1.3483203e-07 -3.8341464e-27)
(1.1538036e-07 -1.4787981e-07 -1.1323632e-27)
(1.2911514e-07 -1.6071124e-07 6.5410294e-28)
(1.4369088e-07 -1.7320828e-07 -2.8643047e-28)
(1.5897388e-07 -1.8528128e-07 6.5662341e-27)
(1.7482537e-07 -1.9687786e-07 4.3522065e-27)
(1.9110723e-07 -2.0796009e-07 5.4440074e-27)
(2.0765171e-07 -2.1847564e-07 -2.8174609e-27)
(2.2428701e-07 -2.282379e-07 1.7522237e-26)
(2.4091884e-07 -2.371132e-07 1.02275e-27)
(2.5737625e-07 -2.4515826e-07 -7.5609965e-26)
(2.7392437e-07 -2.5272759e-07 1.106983e-25)
(2.9108381e-07 -2.6059061e-07 -3.4427736e-26)
(3.0683896e-07 -2.6749017e-07 2.000074e-25)
(3.23814e-07 -2.7118628e-07 -3.7838084e-25)
(3.398311e-07 -2.8102494e-07 1.4255975e-26)
(3.5321245e-07 -2.8437245e-07 -1.3612906e-24)
(4.6263019e-07 -1.1498055e-07 -4.7107634e-25)
(4.5860312e-07 -1.2113531e-07 9.161975e-25)
(5.9271868e-08 -8.05864e-08 -2.9610322e-24)
(6.6740251e-08 -9.2033342e-08 2.3908553e-25)
(7.5760592e-08 -1.0534521e-07 3.0354975e-26)
(8.563745e-08 -1.1910297e-07 -3.2821064e-26)
(9.6796594e-08 -1.3323648e-07 1.7059741e-26)
(1.091122e-07 -1.4743042e-07 -1.54061e-26)
(1.2250995e-07 -1.6149333e-07 -6.2135002e-28)
(1.3690639e-07 -1.7523049e-07 3.3779629e-27)
(1.5216214e-07 -1.8851066e-07 -3.2314916e-27)
(1.6812871e-07 -2.0123511e-07 -4.9389379e-28)
(1.8465671e-07 -2.1334406e-07 -2.1543328e-27)
(2.0160539e-07 -2.2479253e-07 3.7619312e-28)
(2.1883535e-07 -2.3552908e-07 4.9454484e-27)
(2.3621665e-07 -2.4545892e-07 -3.125625e-27)
(2.5366249e-07 -2.545235e-07 2.5701178e-26)
(2.7110561e-07 -2.6277129e-07 -4.9308724e-27)
(2.8857227e-07 -2.7034994e-07 3.6068039e-26)
(3.0591565e-07 -2.7742203e-07 -9.710614e-27)
(3.2283651e-07 -2.8374111e-07 -1.7517417e-26)
(3.4033742e-07 -2.8992701e-07 2.587704e-26)
(3.5585144e-07 -2.9512547e-07 3.443848e-26)
(3.7023678e-07 -2.9568711e-07 -1.8153535e-25)
(3.8348416e-07 -2.996532e-07 -6.7672947e-25)
(3.9631445e-07 -2.9831853e-07 3.0374735e-24)
(4.7994092e-07 -9.9975063e-08 5.9657403e-25)
(4.7758669e-07 -1.0543112e-07 8.6709405e-25)
(4.7470363e-07 -1.1252536e-07 7.8888532e-26)
(4.715855e-07 -1.1867032e-07 -1.4600384e-25)
(7.1778353e-08 -1.0099942e-07 -2.8526943e-24)
(8.0401153e-08 -1.1446818e-07 1.1582631e-25)
(9.1143142e-08 -1.3001017e-07 -9.8808066e-27)
(1.0281936e-07 -1.4536015e-07 1.2378046e-26)
(1.1567388e-07 -1.6065875e-07 2.1373703e-26)
(1.2965249e-07 -1.7576153e-07 -8.4697849e-27)
(1.4467923e-07 -1.9041029e-07 8.0970216e-27)
(1.6057779e-07 -2.0446654e-07 7.3151455e-28)
(1.7718091e-07 -2.1782212e-07 -7.6540403e-28)
(1.9432542e-07 -2.304225e-07 3.6664742e-27)
(2.1187436e-07 -2.4223373e-07 -2.8139153e-27)
(2.2970612e-07 -2.5322014e-07 2.6844868e-27)
(2.4771071e-07 -2.6333474e-07 -4.8277187e-27)
(2.6580133e-07 -2.7254901e-07 -6.7411599e-27)
(2.839051e-07 -2.8089161e-07 1.2514436e-26)
(3.0196336e-07 -2.8843103e-07 -1.6533953e-26)
(3.1982282e-07 -2.9522735e-07 -7.2836667e-27)
(3.3738223e-07 -3.0109356e-07 -1.2785541e-26)
(3.5462804e-07 -3.0607246e-07 -4.7055046e-27)
(3.708163e-07 -3.0988372e-07 -1.5213734e-26)
(3.8659893e-07 -3.1242768e-07 -7.9083298e-26)
(4.0053358e-07 -3.1273932e-07 -5.6155779e-26)
(4.1388456e-07 -3.0847212e-07 -1.0498236e-24)
(4.2639459e-07 -3.0903778e-07 5.0777458e-25)
(4.3895826e-07 -3.0498653e-07 -3.2733174e-24)
(4.9704187e-07 -8.7090351e-08 -1.7531004e-24)
(4.9407921e-07 -9.1941171e-08 2.8771873e-25)
(4.9156408e-07 -9.8069937e-08 4.3196344e-25)
(4.8972098e-07 -1.0375277e-07 4.8720817e-26)
(4.8646309e-07 -1.0905236e-07 -3.521148e-26)
(4.8227463e-07 -1.1472531e-07 3.6510555e-26)
(8.6000383e-08 -1.2508351e-07 4.4150052e-24)
(9.6374434e-08 -1.4110953e-07 -2.9964177e-26)
(1.0911753e-07 -1.5810835e-07 7.2119129e-26)
(1.224096e-07 -1.7448293e-07 -1.8192425e-26)
(1.3689197e-07 -1.9064257e-07 -3.8501183e-27)
(1.5252041e-07 -2.062004e-07 5.8201111e-28)
(1.6902206e-07 -2.2102461e-07 3.4947544e-28)
(1.8620639e-07 -2.3498846e-07 3.9932148e-27)
(2.0389347e-07 -2.4805487e-07 1.1009873e-27)
(2.2195484e-07 -2.6021094e-07 9.8333992e-28)
(2.4028557e-07 -2.7143893e-07 1.8573517e-27)
(2.5878811e-07 -2.8171647e-07 -2.3585617e-28)
(2.7737516e-07 -2.9102693e-07 -5.2472636e-27)
(2.9596067e-07 -2.9937712e-07 5.1128277e-27)
(3.1445146e-07 -3.0678497e-07 -2.3093123e-27)
(3.3271499e-07 -3.1326342e-07 -9.702133e-29)
(3.5065354e-07 -3.187093e-07 -6.2038211e-27)
(3.6814235e-07 -3.2307783e-07 1.8708397e-27)
(3.848881e-07 -3.2609513e-07 1.4217615e-26)
(4.0086979e-07 -3.2744873e-07 2.4017742e-26)
(4.1584843e-07 -3.2693699e-07 5.7681248e-26)
(4.3077612e-07 -3.2532709e-07 -8.2901634e-27)
(4.4415193e-07 -3.2206192e-07 -3.3059168e-26)
(4.5708502e-07 -3.1461971e-07 3.9009257e-25)
(4.6852292e-07 -3.1408783e-07 -1.7623684e-25)
(4.8062404e-07 -3.1074667e-07 -2.2827063e-25)
(4.9081294e-07 -3.0188559e-07 1.3825834e-24)
(5.1605509e-07 -7.241717e-08 4.1181843e-24)
(5.1256319e-07 -7.8017351e-08 -5.841787e-25)
(5.093695e-07 -8.4767912e-08 2.4868296e-25)
(5.0680905e-07 -9.0084574e-08 -9.3347086e-26)
(5.0352738e-07 -9.4856302e-08 4.468552e-26)
(4.9975454e-07 -1.0023541e-07 -7.5699645e-27)
(4.959064e-07 -1.0528511e-07 1.3670414e-26)
(4.9175468e-07 -1.1047308e-07 3.582583e-26)
(1.0354651e-07 -1.5389202e-07 3.8893185e-24)
(1.1538026e-07 -1.710889e-07 -3.4765131e-26)
(1.2943671e-07 -1.8870569e-07 2.1626726e-26)
(1.4432874e-07 -2.0602728e-07 -9.0062851e-26)
(1.6054831e-07 -2.2250967e-07 4.4167098e-26)
(1.7760174e-07 -2.3809956e-07 -5.815999e-28)
(1.9529399e-07 -2.5264605e-07 -1.4984794e-26)
(2.1342656e-07 -2.66149e-07 1.3357216e-27)
(2.3189193e-07 -2.7862791e-07 2.7783357e-27)
(2.5060645e-07 -2.9008058e-07 5.5209661e-28)
(2.6948379e-07 -3.0049624e-07 -1.5867263e-27)
(2.8843722e-07 -3.0986172e-07 1.1038008e-27)
(3.0737464e-07 -3.1817057e-07 -7.0832283e-28)
(3.2619291e-07 -3.2541392e-07 -1.912726e-27)
(3.4477021e-07 -3.3157288e-07 1.3862386e-27)