/*--------------------------------*- C++ -*----------------------------------*\
| =========                 |                                                 |
| \\      /  F ield         | OpenFOAM: The Open Source CFD Toolbox           |
|  \\    /   O peration     | Version:  2412                                  |
|   \\  /    A nd           | Website:  www.openfoam.com                      |
|    \\/     M anipulation  |                                                 |
\*---------------------------------------------------------------------------*/
FoamFile
{
    version     2.0;
    format      ascii;
    arch        "LSB;label=32;scalar=64";
    class       volScalarField;
    location    "15174";
    object      p;
}
// * * * * * * * * * * * * * * * * * * * * * * * * * * * * * * * * * * * * * //

dimensions      [0 2 -2 0 0 0 0];

internalField   nonuniform List<scalar> 
57900
(
0.0063341302
0.0063139904
0.0063768674
0.0063437515
0.0062740056
0.0062905532
0.0061626319
0.006349447
0.0063066256
0.006284334
0.0062703198
0.0061905505
0.0061721816
0.0063282585
0.0062918266
0.0062616648
0.0062350957
0.0061962965
0.0061303142
0.0061481773
0.0060057996
0.0063033528
0.0062712315
0.0062386786
0.0062041992
0.0061612125
0.0061422072
0.0061327925
0.0060403357
0.0060774654
0.0059430765
0.006284006
0.006249275
0.0062181401
0.0061826096
0.0061473379
0.0061194872
0.0060987915
0.0060578302
0.0060201493
0.0059551976
0.0059887497
0.0058810726
0.006251361
0.0062249693
0.0061964465
0.006157991
0.006127139
0.006095686
0.0060657317
0.0060238805
0.0060054177
0.0059725325
0.0059358018
0.0058919414
0.0058804128
0.006199391
0.0061713264
0.0061404501
0.0061081768
0.0060762471
0.0060462305
0.0060117466
0.005982425
0.0059444958
0.0059263483
0.0059027904
0.005851948
0.005868968
0.0057663859
0.0061136462
0.0060862321
0.006054697
0.006026723
0.0059967322
0.0059670999
0.0059365068
0.0059110957
0.0058797538
0.0058680256
0.0058647512
0.0057963526
0.0058293522
0.0057299823
0.0060633213
0.0060337423
0.0060059243
0.0059802037
0.005950686
0.0059245534
0.0058998096
0.005873546
0.0058550948
0.0058421244
0.0058137269
0.0057879183
0.0057419115
0.0057720056
0.006006943
0.0059874837
0.0059640766
0.0059333685
0.005909848
0.0058860465
0.0058618753
0.0058403542
0.0058195656
0.0057897202
0.0057800612
0.0057586729
0.0057337864
0.0059669954
0.0059435909
0.0059203044
0.0058956965
0.0058717792
0.0058489642
0.0058277385
0.0058071704
0.0057833555
0.0057650816
0.0057393083
0.0057297162
0.0058976521
0.0058782494
0.0058556489
0.005834298
0.0058141781
0.0057945241
0.0057742186
0.0057558243
0.0057354897
0.0057198975
0.0058589159
0.0058400937
0.0058191616
0.0058000665
0.005781603
0.0057631886
0.0057459179
0.0057285839
0.0057131343
0.0058210924
0.0058037658
0.005785606
0.0057683744
0.0057515738
0.0057353993
0.0057195252
0.0057045995
0.0057830073
0.0057706561
0.0057547419
0.0057393919
0.0057245294
0.0057099258
0.0057525508
0.005741383
0.00572701
0.0057132793
0.0056998827
0.005724841
0.0057148942
0.0057018724
0.0056894777
0.0056994313
0.0056907441
0.0056789194
0.0056677504
0.005656863
0.0056461895
0.0056357611
0.0056761598
0.0056686708
0.0056579305
0.0056478792
0.0056381412
0.0056286262
0.0056193931
0.0056106639
0.0056547857
0.0056484484
0.0056387079
0.0056297473
0.0056211356
0.0056127973
0.0056048866
0.0055974489
0.0056350604
0.0056298711
0.0056211081
0.0056132325
0.0056057646
0.0055986472
0.0055919375
0.005585661
0.0055798671
0.005616762
0.0056127858
0.0056050149
0.0055982573
0.0055919679
0.0055859874
0.0055803944
0.005575221
0.0055997464
0.005597095
0.0055903798
0.0055848091
0.0055796113
0.0055747234
0.0055701968
0.0055660393
0.0055839039
0.0055827806
0.0055773184
0.0055727781
0.0055686813
0.0055648411
0.0055613949
0.0055691988
0.0055700455
0.0055657293
0.0055623071
0.0055591347
0.0055565576
0.0055549274
0.0055585414
0.0055553291
0.0055529281
0.0055515388
0.0055417364
0.0055487231
0.0055471081
0.0055480839
0.0055316014
0.0065262448
0.0065065009
0.0064621596
0.0064990528
0.0064704812
0.0064324007
0.0064128328
0.0065111257
0.0064948904
0.0064716677
0.0064556927
0.0064349511
0.0064148759
0.0065259385
0.0065066392
0.0064915985
0.0064732886
0.0064561856
0.0064364283
0.0064205865
0.0064170247
0.0065750985
0.0065169871
0.0065301009
0.0065082428
0.0064896189
0.0064738607
0.0064562456
0.0064382157
0.0064225188
0.0064135393
0.0064034432
0.0065278571
0.0065126186
0.0064928485
0.0064769225
0.0064575142
0.0064393195
0.0064231249
0.0064101117
0.0063960294
0.0063883727
0.0063622377
0.0065216019
0.0064971928
0.0064774386
0.0064591927
0.0064383919
0.0064214801
0.0064074202
0.0063925331
0.0063845847
0.0063721272
0.0063668624
0.0065003743
0.0064528638
0.0064580058
0.0064348533
0.006417202
0.0064027087
0.0063889979
0.0063775394
0.006365286
0.0063577926
0.006346933
0.0064477901
0.006429493
0.0064108278
0.0063961719
0.0063829318
0.0063711893
0.006360422
0.0063514063
0.0063395
0.0063367342
0.0063111851
0.0064212916
0.0064050575
0.0063883764
0.0063752115
0.0063634511
0.0063526389
0.0063432484
0.0063311813
0.0063260532
0.0063152025
0.0063080173
0.0063901935
0.0063804034
0.0063662782
0.0063546138
0.0063438903
0.0063340765
0.0063238234
0.0063158278
0.0063050943
0.0062965438
0.0063600717
0.0063574938
0.0063448921
0.0063342037
0.0063244117
0.006314539
0.0063056042
0.0062963188
0.0062861572
0.0063382594
0.0063367857
0.0063242748
0.0063142786
0.0063048155
0.0062956783
0.0062865495
0.0063194212
0.0063170618
0.0063044987
0.0062947944
0.0062856925
0.006276834
0.0062933664
0.0062967109
0.0062844778
0.0062754503
0.006267172
0.0062646366
0.0062751556
0.0062646406
0.0062578259
0.0062625419
0.006251693
0.006248976
0.0062172576
0.0062409409
0.0062287643
0.0061802122
0.0060454324
0.0060507615
0.0060799197
0.0061094521
0.0061047505
0.0061003542
0.0060891335
0.0061089914
0.0061242856
0.0061102589
0.0061054976
0.0060961312
0.0061683363
0.0061629834
0.0061511594
0.0061415007
0.0061318145
0.0061231556
0.0061117329
0.0062083994
0.0062060058
0.0062044505
0.0061990375
0.0061829764
0.0061819356
0.0061634422
0.0061565929
0.0061471272
0.0061363858
0.0061261218
0.0061160776
0.0063504833
0.0063353867
0.0063236761
0.0063121741
0.0063012183
0.0062902958
0.0062780581
0.0062679605
0.0062578601
0.0062469024
0.0062331273
0.0062261316
0.0062132195
0.0062071223
0.0062002227
0.006190484
0.0061834642
0.0061704521
0.0061599328
0.0061481739
0.0061382247
0.0061286338
0.0061195552
0.0063504021
0.0063370011
0.0063253508
0.0063138898
0.0063028444
0.0062919695
0.0062805035
0.0062701858
0.0062598887
0.0062493661
0.0062395145
0.0062291188
0.0062194729
0.006209847
0.0062010042
0.0061913837
0.0061820518
0.0061705465
0.0061601813
0.0061497518
0.0061401549
0.006130956
0.0061222692
0.0063490377
0.0063369595
0.0063254587
0.0063141805
0.0063031881
0.0062923918
0.0062815387
0.0062711132
0.0062607186
0.0062502539
0.0062399983
0.0062294649
0.0062194281
0.0062096638
0.0062003235
0.0061906554
0.0061810677
0.0061707003
0.0061607776
0.0061509598
0.0061416063
0.0061326799
0.0061242604
0.0063470527
0.0063356131
0.0063242541
0.006313172
0.0063023042
0.006291572
0.0062809237
0.006270533
0.0062601725
0.006249858
0.0062396365
0.0062294801
0.0062195589
0.0062098073
0.0062002314
0.0061905431
0.0061808779
0.0061709661
0.0061612727
0.0061517581
0.0061426213
0.0061339002
0.0061256572
0.0063451049
0.0063343379
0.0063230726
0.0063121989
0.0063015141
0.0062909094
0.0062804471
0.0062702177
0.0062598889
0.0062496845
0.0062395768
0.0062295721
0.0062197199
0.0062098765
0.006200162
0.0061904585
0.0061807743
0.0061710816
0.0061615488
0.0061522334
0.0061432501
0.0061346612
0.0061265226
0.0063429917
0.0063330984
0.0063217175
0.0063110079
0.0063005532
0.0062900769
0.0062798148
0.0062698808
0.0062594803
0.0062493817
0.0062394131
0.0062295654
0.0062198234
0.0062098458
0.006200053
0.0061903567
0.0061806556
0.006171077
0.0061616215
0.0061524089
0.0061435028
0.006134982
0.0061268922
0.0063408701
0.0063338732
0.0063209162
0.0063099479
0.0062996856
0.0062891912
0.0062791779
0.0062696976
0.0062590088
0.0062489323
0.0062391122
0.0062295147
0.0062200307
0.0062097371
0.0061998739
0.006190239
0.0061804605
0.0061709537
0.0061614783
0.0061522893
0.0061433845
0.0061348767
0.0063338408
0.006337693
0.0063153395
0.0063068694
0.0062978996
0.0062874667
0.0062782997
0.0062710035
0.006259127
0.006248805
0.0062389904
0.006229801
0.0062208117
0.00620964
0.0061995825
0.0061901147
0.0061800989
0.0061707144
0.0061611015
0.0061518823
0.0061428968
0.0061343544
0.0063290158
0.0063078047
0.0063018238
0.0062940605
0.0062832485
0.0062721416
0.0062743154
0.0062532526
0.0062459464
0.0062372305
0.0062296306
0.0062232572
0.0062100147
0.0061996617
0.0061904807
0.0061796945
0.0061704668
0.0061604324
0.0061511665
0.0061420107
0.0061334163
0.0062618679
0.006244719
0.0062402077
0.0062324087
0.0062233303
0.0062257468
0.0062033072
0.0061963149
0.0061911026
0.0061794653
0.006170873
0.0061596972
0.006150227
0.0061406526
0.0062161554
0.0061950532
0.0061853532
0.0061903859
0.0061724275
0.0061708287
0.0061588087
0.0061494915
0.0061389152
0.0061733875
0.0061594744
0.0061698375
0.006150089
0.0061469942
0.0061364959
0.0061602542
0.0061410383
0.0061437206
0.0061264706
0.0061220974
0.0061096675
0.0064654625
0.0063996739
0.0065593372
0.0064582665
0.0064937998
0.0064245007
0.0064841575
0.0065561675
0.0064694051
0.0064520687
0.0064131854
0.0064948114
0.0064946115
0.0064576185
0.0064247175
0.0063887788
0.0064858915
0.0064643042
0.0064309581
0.0063988923
0.0063658076
0.0064834885
0.0064494164
0.0064092418
0.0063747069
0.0063421068
0.0064772922
0.0064351301
0.0063839304
0.0063488162
0.006316726
0.0064663278
0.0064193412
0.0063409931
0.006308621
0.0062787876
0.0064574231
0.0063930978
0.0063196283
0.0062675389
0.0062145717
0.0061881596
0.0028524217
0.0028387911
0.0028434066
0.0028477446
0.002852273
0.0028552776
0.0028633232
0.0028366564
0.0028414623
0.0028459535
0.0028506444
0.0028532499
0.0028541825
0.0028585454
0.0028349925
0.0028399009
0.0028443871
0.0028486327
0.0028515392
0.0028543397
0.0028723915
0.0028338295
0.0028388463
0.0028434138
0.002847594
0.0028508476
0.0028528235
0.0028550431
0.0028617283
0.0028331564
0.0028382732
0.0028429284
0.0028471367
0.0028507014
0.0028535761
0.002856738
0.0028576014
0.0028622024
0.0028329549
0.0028381633
0.0028429029
0.0028471756
0.0028509018
0.0028540667
0.0028572074
0.0028598926
0.0028586877
0.0028635736
0.0028332725
0.0028385456
0.0028433643
0.0028477218
0.0028515959
0.0028550091
0.0028581782
0.0028613917
0.0028649097
0.0028652877
0.0028781218
0.0028340502
0.0028394051
0.0028443019
0.0028487203
0.0028526811
0.0028562049
0.0028593728
0.0028623125
0.0028656178
0.0028667121
0.002864606
0.0028739326
0.0028352234
0.0028407194
0.0028457058
0.0028501804
0.002854189
0.0028577651
0.0028609412
0.0028637392
0.0028662564
0.0028670708
0.0028701044
0.002889352
0.0028264277
0.0028207325
0.0028294835
0.0028368197
0.0028424963
0.0028475783
0.0028521093
0.0028561444
0.002859753
0.0028629688
0.0028658006
0.0028682625
0.0028696274
0.0028702082
0.0028695297
0.0028820869
0.0028275887
0.0028230832
0.0028339549
0.0028401708
0.0028452257
0.002850087
0.0028545501
0.0028585582
0.002862151
0.0028653776
0.002868258
0.0028708445
0.0028729689
0.0028750939
0.0028787505
0.0028791868
0.0028914905
0.0028350302
0.0028356409
0.0028416475
0.0028478955
0.0028528671
0.0028573628
0.0028613618
0.0028649145
0.0028680943
0.0028709336
0.0028734701
0.0028756454
0.002877682
0.0028807985
0.0028822462
0.0028784431
0.0028899745
0.002822194
0.0028286078
0.0028438746
0.0028516121
0.0028562842
0.0028606781
0.0028646062
0.0028680696
0.0028711539
0.0028739047
0.002876355
0.0028784964
0.002880421
0.0028824526
0.002883482
0.0028899201
0.0029034845
0.002849811
0.0028500287
0.0028559448
0.002860497
0.0028645726
0.0028683132
0.0028716239
0.0028745648
0.0028771811
0.0028795089
0.0028815603
0.0028833909
0.0028851245
0.0028861956
0.0028864091
0.0028832774
0.0029007957
0.0028623841
0.0028550032
0.0028598627
0.0028649865
0.0028688023
0.0028723897
0.0028755386
0.0028783057
0.0028807518
0.0028829231
0.002884834
0.0028865035
0.0028879835
0.0028889472
0.0028882867
0.002892513
0.0029121615
0.0028317885
0.0028424584
0.0028621103
0.0028696172
0.0028732917
0.0028768146
0.0028798062
0.0028823724
0.0028846169
0.0028865973
0.0028883457
0.0028898862
0.002891252
0.0028923681
0.0028928182
0.0028942692
0.0028945181
0.0029127401
0.0028660985
0.002871847
0.0028765764
0.0028791174
0.0028819643
0.0028845417
0.0028867926
0.0028887722
0.0028905139
0.0028920542
0.0028934182
0.0028946322
0.0028956822
0.0028965418
0.0028981718
0.0028998906
0.002896255
0.0029106856
0.0028785463
0.0028759214
0.002881781
0.0028846247
0.0028872075
0.0028894998
0.0028914627
0.0028931634
0.0028946412
0.0028959317
0.002897064
0.0028980564
0.0028988973
0.0028995889
0.002900253
0.0029005486
0.002908244
0.0029190473
0.0028838041
0.002882157
0.0028880614
0.0028906132
0.0028928294
0.0028947699
0.0028963983
0.0028977844
0.0028989673
0.0028999777
0.0029008463
0.0029015866
0.0029021897
0.0029026587
0.0029030919
0.0029031621
0.0029039222
0.0028993049
0.0029196028
0.0028906985
0.0028925048
0.0028961004
0.0028973548
0.0028989224
0.0029003718
0.0029015905
0.0029026178
0.0029034736
0.0029041809
0.0029047645
0.0029052407
0.0029056108
0.0029058733
0.0029061097
0.0029059944
0.0029050618
0.0029125996
0.0029246124
0.0028932179
0.0028984389
0.002902642
0.0029037692
0.0029050579
0.0029061264
0.0029069577
0.0029076162
0.0029081294
0.0029085162
0.0029087965
0.0029089864
0.0029090889
0.0029090985
0.0029090504
0.002908859
0.0029081579
0.0029089146
0.0029049257
0.0029272511
0.0028988179
0.0029078409
0.0029107626
0.0029108767
0.0029115821
0.0029121396
0.0029125178
0.0029127718
0.0029129165
0.0029129635
0.00291293
0.0029128269
0.0029126612
0.0029124281
0.0029121448
0.0029118381
0.002911177
0.0029098705
0.0029180164
0.0029300467
0.0029039108
0.0029162557
0.0029185894
0.0029180397
0.0029182327
0.002918292
0.0029182077
0.0029180411
0.0029178005
0.0029174963
0.0029171378
0.0029167342
0.0029162913
0.0029158048
0.0029152774
0.0029147199
0.0029140282
0.0029128179
0.0029136583
0.0029095783
0.0029311722
0.0029101836
0.0029231409
0.002925892
0.0029252136
0.0029249596
0.002924536
0.0029239875
0.0029233878
0.0029227503
0.0029220836
0.0029213941
0.002920688
0.0029199668
0.0029192322
0.0029184862
0.002917736
0.0029170304
0.0029160708
0.0029143863
0.0029226055
0.002937858
0.0029333982
0.0029338935
0.0029345944
0.0029331168
0.0029319976
0.0029309261
0.0029298486
0.0029287835
0.0029277338
0.0029266958
0.0029256705
0.0029246566
0.0029236559
0.0029226692
0.0029217014
0.0029207573
0.0029199039
0.0029190823
0.0029177118
0.0029213198
0.0029284404
0.002934178
0.0029586204
0.0029442587
0.0029427023
0.0029408687
0.0029390015
0.0029372981
0.0029356936
0.0029341673
0.002932705
0.0029312955
0.0029299341
0.0029286125
0.0029273302
0.0029260801
0.0029248635
0.0029236699
0.0029224995
0.0029212946
0.0029196493
0.0029191868
0.0029158807
0.002942314
0.0029279822
0.0029555059
0.0029567984
0.0029514339
0.0029484004
0.0029458703
0.0029435745
0.0029414594
0.0029394848
0.0029376194
0.0029358477
0.0029341563
0.0029325331
0.0029309709
0.0029294629
0.0029280043
0.0029265829
0.0029251827
0.0029238084
0.002922033
0.0029193918
0.0029267049
0.0029366243
0.002953718
0.0029629028
0.0029619758
0.002958282
0.0029552623
0.0029523559
0.0029496197
0.0029470683
0.0029446802
0.0029424367
0.0029403178
0.0029383079
0.0029363922
0.0029345588
0.0029327994
0.002931106
0.0029294671
0.0029278608
0.0029262842
0.0029245628
0.0029221388
0.0029230262
0.0029195824
0.0029450286
0.0029763289
0.0029876027
0.0029763171
0.0029704125
0.0029662172
0.0029623409
0.0029587743
0.002955521
0.0029525213
0.0029497325
0.0029471279
0.0029446779
0.0029423645
0.0029401686
0.0029380745
0.0029360739
0.0029341549
0.0029323104
0.0029305267
0.0029287959
0.0029271393
0.0029251382
0.0029227572
0.0029310031
0.0029440083
0.002993099
0.0030055087
0.0029924976
0.0029883521
0.002979802
0.002973885
0.0029690897
0.0029649061
0.0029611687
0.0029577542
0.0029545981
0.0029516584
0.0029489008
0.0029463018
0.0029438402
0.0029414991
0.0029392664
0.002937131
0.0029350857
0.0029331215
0.0029312268
0.0029294441
0.0029276317
0.0029251569
0.0029285131
0.0029336997
0.0029941961
0.003006582
0.0030020924
0.002993516
0.0029858876
0.0029800645
0.002975018
0.0029705201
0.0029664479
0.0029627047
0.0029592361
0.0029559991
0.0029529624
0.0029500995
0.0029473894
0.0029448152
0.0029423614
0.0029400189
0.0029377746
0.0029356204
0.0029335338
0.0029315006
0.0029294158
0.0029267151
0.0029262498
0.0029241983
0.0029514623
0.0030025979
0.0030204236
0.0030098426
0.0030044321
0.0029975083
0.0029911423
0.0029855202
0.0029803893
0.0029756981
0.0029713775
0.0029673695
0.002963635
0.0029601362
0.0029568472
0.0029537423
0.0029508018
0.0029480089
0.0029453478
0.0029428096
0.0029403795
0.0029380532
0.0029358088
0.0029336274
0.002931522
0.0029290485
0.0029258723
0.002933068
0.0029438708
0.0030072946
0.0030272284
0.0030190495
0.0030142711
0.003008537
0.0030022002
0.0029961621
0.0029905653
0.0029853549
0.0029805064
0.0029759852
0.0029717558
0.0029677916
0.002964062
0.0029605453
0.0029572191
0.0029540655
0.0029510687
0.0029482142
0.0029454915
0.0029428878
0.0029403974
0.0029380055
0.0029356883
0.0029334727
0.0029311562
0.0029279074
0.0029307484
0.0029338052
0.0030414911
0.0030429107
0.0030310827
0.0030251698
0.0030193124
0.0030130111
0.0030067945
0.0030008571
0.0029952534
0.0029899653
0.0029849837
0.0029802943
0.0029758751
0.0029717093
0.0029677742
0.0029640511
0.0029605221
0.0029571715
0.0029539849
0.0029509495
0.0029480529
0.0029452859
0.0029426366
0.0029400964
0.0029376376
0.0029352526
0.0029328349
0.0029297428
0.0029298388
0.0029293892
0.0029587104
0.0030434522
0.003054908
0.0030419779
0.0030357526
0.0030297651
0.0030235102
0.0030172545
0.0030111502
0.0030052642
0.002999634
0.0029942676
0.0029891662
0.0029843281
0.0029797415
0.0029753954
0.0029712736
0.0029673619
0.0029636461
0.0029601129
0.0029567498
0.0029535449
0.0029504865
0.0029475665
0.0029447713
0.0029420942
0.0029395081
0.0029369933
0.0029345369
0.0029315493
0.0029281247
0.0029342122
0.0029409406
0.0030380089
0.003061078
0.0030542748
0.0030466265
0.0030404572
0.0030340531
0.0030276983
0.003021454
0.0030153545
0.0030094475
0.0030037598
0.002998304
0.0029930859
0.00298811
0.0029833688
0.0029788566
0.0029745626
0.0029704764
0.0029665871
0.0029628839
0.0029593561
0.0029559936
0.0029527852
0.0029497227
0.002946795
0.0029439945
0.0029413045
0.0029387061
0.002936214
0.0029336285
0.0029305271
0.0029321641
0.0029312032
0.0029583453
0.003115257
0.0030898748
0.0030759235
0.0030676924
0.0030599386
0.0030520791
0.0030450804
0.0030383717
0.003031872
0.0030255486
0.0030193925
0.0030134224
0.0030076558
0.0030021015
0.0029967668
0.0029916566
0.0029867687
0.0029820999
0.0029776441
0.0029733941
0.002969342
0.0029654794
0.0029617973
0.002958287
0.0029549392
0.0029517446
0.0029486942
0.0029457792
0.0029429893
0.0029403082
0.0029377371
0.0029352817
0.002932496
0.0029297471
0.0029366741
0.0029436331
0.0031010162
0.0030964644
0.0031045851
0.0030842402
0.0030797205
0.0030709679
0.0030636563
0.0030562205
0.0030491959
0.0030424338
0.0030358603
0.0030294674
0.0030232424
0.0030171955
0.0030113387
0.0030056792
0.0030002251
0.0029949818
0.0029899505
0.0029851308
0.0029805201
0.0029761142
0.0029719077
0.0029678943
0.002964067
0.0029604183
0.0029569398
0.002953623
0.0029504585
0.0029474383
0.0029445521
0.0029417838
0.0029391179
0.0029365837
0.0029339567
0.0029305139
0.0029328189
0.0029336104
0.0031375702
0.003115891
0.0031123293
0.0031044783
0.003106627
0.0030926395
0.0030834097
0.0030751824
0.0030676238
0.0030602102
0.0030531409
0.0030463161
0.0030396771
0.003033213
0.0030269113
0.0030207786
0.003014823
0.0030090519
0.0030034741
0.002998096
0.0029929217
0.0029879536
0.002983192
0.0029786353
0.0029742806
0.0029701234
0.0029661585
0.0029623795
0.0029587791
0.0029553496
0.0029520818
0.0029489664
0.0029459948
0.0029431519
0.002940417
0.0029377957
0.0029351722
0.0029318943
0.0029322321
0.0029336583
0.0029618212
0.0031532119
0.0031494536
0.0031442752
0.0031337328
0.0031358674
0.0031211829
0.003117979
0.0031102306
0.0031052714
0.0030951151
0.0030866722
0.0030787673
0.0030712227
0.0030639031
0.003056849
0.0030499991
0.0030433146
0.0030367865
0.0030304081
0.0030241834
0.0030181219
0.0030122322
0.0030065243
0.0030010072
0.0029956876
0.0029905708
0.0029856597
0.0029809552
0.0029764564
0.0029721608
0.0029680646
0.0029641625
0.0029604483
0.0029569146
0.0029535537
0.0029503558
0.0029473112
0.0029444083
0.0029416277
0.002938963
0.0029364339
0.0029335696
0.0029305905
0.0029367084
0.0029417732
0.0031867417
0.0031831022
0.0031807924
0.003175028
0.0031640447
0.0031595954
0.0031492796
0.0031445738
0.0031411692
0.0031383826
0.0031264063
0.0031196598
0.0031120649
0.0031055304
0.0030972467
0.0030894829
0.0030819037
0.0030745389
0.0030673544
0.0030603529
0.0030535051
0.00304679
0.0030402046
0.0030337466
0.0030274243
0.0030212484
0.0030152309
0.0030093847
0.0030037216
0.0029982519
0.0029929834
0.0029879217
0.0029830701
0.0029784297
0.0029739995
0.002969777
0.0029657581
0.0029619373
0.0029583079
0.0029548623
0.0029515912
0.0029484852
0.0029455329
0.0029427154
0.0029400085
0.0029374336
0.0029347203
0.0029310555
0.002933185
0.002932769
0.0032295891
0.003224088
0.0032225757
0.0032182347
0.0032107433
0.0031994214
0.0031961179
0.0031852392
0.003180632
0.003175001
0.003169886
0.0031638121
0.0031545261
0.0031476658
0.0031421003
0.0031364867
0.0031277841
0.0031209044
0.0031138334
0.0031070434
0.0030995404
0.0030921599
0.0030848685
0.0030776989
0.0030706457
0.0030637078
0.0030568732
0.0030501334
0.0030434899
0.0030369474
0.0030305179
0.0030242162
0.0030180587
0.0030120626
0.0030062438
0.003000616
0.0029951902
0.0029899747
0.0029849749
0.0029801936
0.0029756313
0.0029712866
0.0029671562
0.0029632354
0.0029595182
0.0029559972
0.0029526642
0.0029495092
0.0029465213
0.0029436849
0.0029409762
0.0029384044
0.0029358443
0.0029325758
0.0029334895
0.0029366246
0.002963942
0.0032958671
0.0032789206
0.0032759289
0.0032704793
0.003263406
0.0032546503
0.0032438942
0.0032426106
0.0032287031
0.0032238306
0.0032182825
0.0032112454
0.0032050813
0.0031986587
0.0031896298
0.0031823953
0.003175814
0.0031695677
0.0031628704
0.0031553253
0.0031486832
0.0031425595
0.0031364057
0.0031291434
0.0031224335
0.0031156288
0.0031088715
0.0031018132
0.0030947604
0.0030877336
0.0030807546
0.0030738297
0.0030669604
0.003060143
0.0030533778
0.0030466711
0.0030400337
0.0030334829
0.0030270393
0.0030207256
0.0030145643
0.0030085763
0.0030027794
0.0029971881
0.0029918133
0.0029866623
0.0029817394
0.0029770464
0.0029725826
0.0029683454
0.0029643306
0.0029605327
0.0029569447
0.0029535587
0.0029503654
0.0029473553
0.0029445151
0.002941823
0.0029392748
0.0029368834
0.002934152
0.0029316333
0.0029373277
0.0029398704
0.003316828
0.0033083413
0.0033002675
0.0033064315
0.003284277
0.0032783178
0.0032717661
0.003264177
0.0032558841
0.0032486859
0.003241968
0.0032327552
0.0032248231
0.0032179606
0.0032107767
0.0032039146
0.0031968002
0.003189131
0.0031822011
0.003175671
0.0031692391
0.0031627151
0.0031559464
0.0031495418
0.0031433594
0.0031371408
0.0031304721
0.0031239681
0.0031174128
0.0031108393
0.0031041154
0.0030973504
0.0030905621
0.0030837639
0.0030769625
0.0030701605
0.0030633582
0.0030565614
0.0030497802
0.0030430316
0.0030363396
0.0030297325
0.0030232408
0.0030168941
0.0030107192
0.0030047389
0.0029989713
0.0029934296
0.0029881228
0.0029830566
0.0029782333
0.0029736528
0.0029693129
0.0029652097
0.002961338
0.0029576913
0.0029542618
0.0029510407
0.0029480182
0.002945183
0.0029425155
0.002939993
0.0029376356
0.0029351485
0.0029318055
0.0029341514
0.0029322007
0.0033178973
0.0033096205
0.0033024889
0.0032976034
0.0032868301
0.0032778536
0.0032701427
0.0032623667
0.0032543414
0.0032466725
0.0032389781
0.0032308091
0.0032232876
0.0032163706
0.0032093871
0.0032025097
0.003195637
0.0031886388
0.0031819805
0.0031755467
0.0031692056
0.0031628677
0.003156474
0.0031502584
0.0031441605
0.0031380526
0.0031317678
0.0031255243
0.0031192384
0.0031129076
0.0031064745
0.0030999714
0.0030934049
0.0030867796
0.0030800972
0.0030733588
0.003066566
0.0030597263
0.0030528535
0.003045971
0.0030391105
0.0030323107
0.0030256122
0.0030190538
0.0030126697
0.0030064881
0.0030005306
0.0029948126
0.0029893444
0.0029841322
0.0029791785
0.0029744832
0.0029700443
0.0029658579
0.0029619188
0.0029582208
0.0029547562
0.0029515174
0.0029484951
0.002945679
0.0029430551
0.0029406044
0.002938353
0.0029361868
0.0029334194
0.0029355661
0.0029406125
0.0029666701
0.0033143422
0.0033063804
0.0032987612
0.0032915705
0.0032827623
0.0032745344
0.0032669078
0.0032592755
0.0032515883
0.0032440459
0.0032366097
0.0032290588
0.0032218639
0.0032149738
0.0032081336
0.0032013948
0.0031947162
0.0031880568
0.0031815991
0.0031753026
0.0031691077
0.0031629691
0.0031568627
0.00315087
0.0031449566
0.0031390562
0.0031330913
0.0031271286
0.0031211236
0.0031150605
0.003108907
0.0031026587
0.003096309
0.0030898535
0.0030832879
0.0030766091
0.0030698175
0.00306292
0.0030559329
0.0030488852
0.0030418197
0.0030347883
0.0030278457
0.0030210421
0.0030144208
0.0030080161
0.0030018529
0.0029959479
0.0029903119
0.0029849507
0.0029798663
0.0029750582
0.0029705239
0.0029662593
0.0029622592
0.0029585172
0.0029550262
0.0029517781
0.002948764
0.002945975
0.002943399
0.0029410169
0.0029388305
0.0029368348
0.0029344501
0.0029323712
0.0029366735
0.0029386634
0.0033103974
0.0033026223
0.0032949833
0.0032875317
0.0032794028
0.0032715808
0.0032640304
0.0032565218
0.0032490484
0.0032416883
0.0032344404
0.0032272343
0.0032202476
0.0032134603
0.0032067709
0.0032001909
0.003193704
0.0031873012
0.0031810525
0.0031749405
0.0031689362
0.0031630175
0.0031571716
0.0031514214
0.0031457438
0.0031400993
0.0031344406
0.0031287777
0.0031230717
0.0031172984
0.0031114338
0.0031054466
0.0030993183
0.0030930366
0.0030865897
0.0030799691
0.0030731705
0.0030661978
0.0030590668
0.0030518137
0.0030444941
0.0030371787
0.0030299435
0.0030228524
0.0030159601
0.0030093069
0.0030029202
0.0029968167
0.0029910065
0.0029854936
0.0029802788
0.0029753602
0.0029707344
0.0029663969
0.0029623419
0.0029585631
0.0029550532
0.0029518046
0.0029488091
0.0029460584
0.002943544
0.0029412551
0.0029391933
0.0029374115
0.0029357448
0.0029339823
0.0029373866
0.0029420625
0.00296545
0.0033068091
0.0032990457
0.0032913746
0.0032838204
0.0032760675
0.003268478
0.003261047
0.003253692
0.0032464118
0.003239241
0.0032321864
0.0032252318
0.0032184436
0.0032118119
0.0032052949
0.0031988938
0.0031926041
0.003186425
0.0031803837
0.0031744733
0.0031686801
0.0031629922
0.0031574013
0.0031519115
0.0031465034
0.0031411481
0.0031358072
0.0031304708
0.003125088
0.0031196296
0.0031140806
0.0031083742
0.0031024813
0.0030963841
0.0030900634
0.0030835037
0.0030766923
0.0030696261
0.0030623156
0.0030548037
0.0030471632
0.003039494
0.0030319035
0.0030244705
0.003017266
0.0030103358
0.0030037078
0.0029973952
0.0029914058
0.00298574
0.002980396
0.00297537
0.0029706573
0.0029662522
0.0029621488
0.0029583402
0.0029548192
0.0029515779
0.0029486078
0.0029459007
0.0029434481
0.0029412409
0.0029392715
0.0029375602
0.0029361098
0.002934593
0.002933781
0.0029391797
0.0029380459
0.0033031946
0.0032954194
0.0032877508
0.0032801992
0.0032726524
0.0032652376
0.0032579529
0.0032507666
0.0032436781
0.0032367027
0.0032298464
0.0032231062
0.0032165081
0.0032100482
0.0032037099
0.0031974933
0.0031913984
0.0031854274
0.0031795924
0.0031738917
0.0031683202
0.0031628713
0.0031575404
0.0031523262
0.0031472129
0.0031421785
0.0031371789
0.0031322075
0.0031271799
0.0031220647
0.003116879
0.0031114864
0.0031058512
0.0030999576
0.0030937775
0.0030872887
0.0030804649
0.0030732895
0.0030657569
0.0030579164
0.0030498633
0.0030417422
0.0030337149
0.0030258737
0.0030183097
0.0030110716
0.0030041848
0.0029976537
0.0029914827
0.0029856652
0.0029801957
0.002975067
0.0029702728
0.0029658063
0.0029616611
0.00295783
0.0029543056
0.0029510797
0.0029481435
0.0029454876
0.0029431015
0.002940974
0.0029390892
0.0029374326
0.0029360119
0.0029345646
0.002932442
0.0029348031
0.0029315044
0.0032995247
0.0032917277
0.0032840758
0.0032765699
0.0032691631
0.0032618958
0.0032547624
0.003247747
0.0032408455
0.0032340625
0.0032273998
0.0032208575
0.0032144454
0.003208163
0.0032020047
0.003195973
0.0031900698
0.0031842998
0.00317867
0.0031731827
0.0031678376
0.0031626326
0.0031575675
0.0031526454
0.0031478502
0.0031431713
0.0031385408
0.0031339901
0.0031293532
0.0031246069
0.0031198716
0.0031148442
0.0031094963
0.0031038317
0.0030978152
0.0030914195
0.0030845964
0.0030773065
0.0030695043
0.0030612433
0.0030526468
0.0030439328
0.0030353617
0.0030270237
0.0030190444
0.0030114681
0.0030043112
0.0029975578
0.0029912083
0.0029852442
0.002979655
0.0029744298
0.0029695606
0.0029650394
0.0029608594
0.0029570135
0.0029534939
0.0029502923
0.0029473993
0.002944805
0.0029424984
0.0029404684
0.0029387003
0.0029371794
0.0029359319
0.0029348607
0.0029333652
0.0029364634
0.002943378
0.0029656661
0.0032957432
0.0032879146
0.0032802833
0.0032728393
0.0032655532
0.0032584287
0.0032514536
0.0032446132
0.0032378985
0.003231307
0.0032248358
0.0032184841
0.003212256
0.0032061526
0.0032001741
0.0031943242
0.0031886086
0.0031830337
0.003177607
0.0031723332
0.0031672157
0.0031622564
0.0031574592
0.0031528423
0.0031483847
0.0031441027
0.0031398631
0.0031358214
0.0031316042
0.0031272168
0.0031231016
0.0031185155
0.0031134841
0.0031080777
0.0031022538
0.0030959909
0.0030892047
0.0030818188
0.0030736933
0.0030648822
0.0030555481
0.0030460372
0.0030367987
0.0030278604
0.0030194078
0.0030114676
0.0030040395
0.0029970648
0.0029905487
0.0029844481
0.0029787492
0.002973436
0.0029684999
0.0029639312
0.0029597239
0.002955871
0.0029523647
0.0029491965
0.0029463566
0.0029438347
0.0029416185
0.0029396955
0.0029380506
0.002936666
0.0029355472
0.0029347063
0.002933732
0.0029334924
0.0029382479
0.002936472
0.0032917731
0.003283914
0.0032763128
0.0032689471
0.0032617864
0.0032548141
0.0032480088
0.003241352
0.003234829
0.0032284309
0.0032221518
0.0032159888