/*--------------------------------*- C++ -*----------------------------------*\
| =========                 |                                                 |
| \\      /  F ield         | OpenFOAM: The Open Source CFD Toolbox           |
|  \\    /   O peration     | Version:  2412                                  |
|   \\  /    A nd           | Website:  www.openfoam.com                      |
|    \\/     M anipulation  |                                                 |
\*---------------------------------------------------------------------------*/
FoamFile
{
    version     2.0;
    format      ascii;
    arch        "LSB;label=32;scalar=64";
    class       surfaceScalarField;
    location    "15174";
    object      phi;
}
// * * * * * * * * * * * * * * * * * * * * * * * * * * * * * * * * * * * * * //

dimensions      [0 3 -1 0 0 0 0];

oriented        oriented;

internalField   nonuniform List<scalar> 
112613
(
2.4479947e-25
3.4765023e-25
2.4216029e-25
9.7937902e-25
9.5463242e-25
5.9207964e-25
7.349496e-25
3.6443375e-25
4.698062e-25
1.7373845e-25
1.8745058e-25
1.6230428e-25
1.6656116e-24
1.3327259e-24
1.2711285e-24
1.1294327e-24
8.5064255e-25
8.9029217e-25
4.5424231e-25
5.8385081e-25
2.4868493e-25
3.6786168e-25
2.4614716e-25
2.2400148e-24
1.5709617e-24
1.8969786e-24
1.4724689e-24
1.5093727e-24
1.2778981e-24
1.0335436e-24
1.0596799e-24
6.0738185e-25
7.9402343e-25
3.6987209e-25
4.8365693e-25
1.7650327e-25
1.898018e-25
1.6586103e-25
2.5813338e-24
1.8064725e-24
2.3576047e-24
1.696198e-24
2.1229529e-24
1.5125499e-24
1.7601014e-24
1.4225314e-24
1.3266918e-24
1.227433e-24
8.903085e-25
9.2004022e-25
5.1578447e-25
5.6432582e-25
3.4622185e-25
3.3542366e-25
1.6627242e-25
1.7788763e-25
1.5882168e-25
2.6592331e-24
2.9909183e-24
2.5562367e-24
1.7991944e-24
2.5367084e-24
1.5320782e-24
2.3116427e-24
1.6475971e-24
1.9826586e-24
1.5564172e-24
1.5540978e-24
1.348601e-24
1.1000799e-24
1.0183437e-24
7.2514503e-25
7.1035854e-25
4.3883461e-25
4.6419805e-25
3.0415864e-25
2.9349767e-25
1.4321584e-25
1.5983596e-25
1.3691674e-25
3.0972304e-24
2.5393559e-24
2.357069e-24
2.8946145e-24
1.1768195e-24
2.6457719e-24
1.8964397e-24
2.3480126e-24
1.8541764e-24
2.0506389e-24
1.6459747e-24
1.6918265e-24
1.3771562e-24
1.3300521e-24
1.0721329e-24
9.4765654e-25
8.4659365e-25
6.1320596e-25
6.2794825e-25
3.3826038e-25
4.3478155e-25
1.910038e-25
2.8417332e-25
1.9004727e-25
2.5749687e-24
3.8739782e-24
2.7596607e-24
3.0107573e-24
2.4912233e-24
2.1226137e-24
2.2740176e-24
1.8631804e-24
2.0764144e-24
1.5747595e-24
1.8168773e-24
1.3316699e-24
1.5045362e-24
1.1589348e-24
1.1581284e-24
9.7435601e-25
7.8579973e-25
8.0711023e-25
4.6316893e-25
6.0680411e-25
2.8316508e-25
3.7005115e-25
1.3474591e-25
1.4596739e-25
1.2633385e-25
3.188183e-24
2.4148251e-24
2.8959716e-24
2.3319602e-24
1.9460453e-24
2.2725227e-24
1.6341969e-24
2.1857596e-24
1.4184331e-24
1.9663548e-24
1.3783396e-24
1.6667155e-24
1.2739953e-24
1.340251e-24
1.1335747e-24
1.0161818e-24
9.3087341e-25
6.8533937e-25
7.0089354e-25
3.9686876e-25
4.34438e-25
2.6528368e-25
2.5791893e-25
1.2698273e-25
1.3663852e-25
1.2117642e-25
3.0580331e-24
2.3074379e-24
2.6966405e-24
2.390292e-24
1.5513429e-24
2.5023711e-24
1.306354e-24
2.3306023e-24
1.5501083e-24
2.0778408e-24
1.5267568e-24
1.8069709e-24
1.4044447e-24
1.5074837e-24
1.2303606e-24
1.2030781e-24
1.0052992e-24
8.5731343e-25
7.8020265e-25
5.6109909e-25
5.5413328e-25
3.3689285e-25
3.6084476e-25
2.3231295e-25
2.2575633e-25
1.2219485e-25
1.0928039e-25
3.0452346e-24
2.4738399e-24
2.1227376e-24
2.8372771e-24
9.4291676e-25
2.625058e-24
1.7623275e-24
2.3797237e-24
1.772091e-24
2.1350884e-24
1.64908e-24
1.8939363e-24
1.4715127e-24
1.6246739e-24
1.2745616e-24
1.3420677e-24
1.0628088e-24
1.0450489e-24
8.5115211e-25
7.3775069e-25
6.68143e-25
4.7295205e-25
4.9055497e-25
3.3604259e-25
2.5910432e-25
2.5869106e-24
3.7818663e-24
2.745886e-24
2.7983077e-24
2.5332379e-24
1.9847391e-24
2.3389183e-24
1.8433995e-24
2.1434008e-24
1.6670303e-24
1.9340814e-24
1.4838811e-24
1.6971831e-24
1.2997071e-24
1.4462231e-24
1.1021121e-24
1.1815985e-24
9.327676e-25
9.0399308e-25
7.6816042e-25
6.2729695e-25
6.1273873e-25
3.2229278e-24
2.4805542e-24
2.7271127e-24
2.4069242e-24
1.9170295e-24
2.2935693e-24
1.7803851e-24
2.1462004e-24
1.63125e-24
1.9707788e-24
1.4751287e-24
1.7582675e-24
1.3146234e-24
1.5360299e-24
1.1550052e-24
1.3017724e-24
1.0024179e-24
8.6621482e-25
1.0628546e-24
3.1224936e-24
2.3980339e-24
2.6414892e-24
2.3726789e-24
1.8057401e-24
2.2907336e-24
1.7131952e-24
2.1626065e-24
1.6032558e-24
2.0031899e-24
1.47404e-24
1.820973e-24
1.3372221e-24
1.6293893e-24
1.1940016e-24
1.0600078e-24
1.4355963e-24
3.1033152e-24
2.4093243e-24
2.499731e-24
2.3861786e-24
1.7363409e-24
2.3065457e-24
1.6828887e-24
2.1880799e-24
1.5925059e-24
2.0474727e-24
1.4778292e-24
1.8912562e-24
1.3502182e-24
1.7300379e-24
1.2212262e-24
3.1937392e-24
2.4405691e-24
2.4895109e-24
2.4006257e-24
1.7228321e-24
2.3240114e-24
1.6691202e-24
2.2179826e-24
1.583858e-24
1.4747122e-24
2.0934885e-24
3.1800159e-24
2.4409231e-24
2.4619248e-24
2.4085745e-24
1.7014688e-24
2.3430985e-24
1.649334e-24
1.5669077e-24
2.2509031e-24
3.1668271e-24
2.4426444e-24
2.4256515e-24
2.4201799e-24
1.6717984e-24
1.620608e-24
2.3664796e-24
3.1592791e-24
2.4500475e-24
2.38103e-24
2.4373311e-24
1.6333243e-24
2.3949453e-24
1.58193e-24
-1.5395442e-24
2.3285778e-24
1.500907e-24
-1.4345395e-24
2.246972e-24
1.3960206e-24
-1.3144148e-24
1.2763081e-24
-1.1867001e-24
2.157364e-24
3.1578169e-24
2.4636246e-24
2.3275166e-24
2.4602354e-24
1.5853192e-24
2.4286259e-24
1.5325165e-24
2.3741479e-24
1.4504987e-24
2.3054956e-24
1.3449603e-24
2.2299669e-24
1.22539e-24
-1.1498613e-24
1.1009399e-24
-1.0238796e-24
2.1529066e-24
3.1624191e-24
2.4835593e-24
2.2641789e-24
2.4891828e-24
1.5268929e-24
2.468237e-24
1.4714445e-24
2.4261116e-24
1.3870857e-24
2.3718134e-24
1.2796882e-24
2.3132147e-24
1.1595386e-24
1.0356001e-24
-9.7767612e-25
2.2552908e-24
3.1730177e-24
2.5101761e-24
2.1897345e-24
2.5251508e-24
1.4564698e-24
2.5159236e-24
1.396313e-24
2.488434e-24
1.3071779e-24
2.4512282e-24
1.1967443e-24
2.4105863e-24
1.076242e-24
2.3713628e-24
9.5184807e-25
-9.1262463e-25
8.2697863e-25
-7.9320579e-25
2.33759e-24
3.1900934e-24
2.5446773e-24
2.1018859e-24
2.5705404e-24
1.3704498e-24
2.5771422e-24
1.300576e-24
2.5690538e-24
1.2048328e-24
2.5490796e-24
1.0962162e-24
2.5240937e-24
9.7683395e-25
8.4786515e-25
2.5032072e-24
3.2144373e-24
2.5887863e-24
1.9961008e-24
2.632407e-24
1.2569553e-24
2.6653498e-24
1.1718899e-24
2.6741271e-24
1.0874389e-24
2.663282e-24
9.8767908e-25
2.6514346e-24
8.5971254e-25
7.1684488e-25
-7.1626942e-25
2.6508591e-24
3.2465084e-24
2.6507293e-24
1.8527343e-24
2.7362808e-24
1.0863385e-24
2.7846955e-24
1.0390241e-24
2.7878396e-24
9.8453491e-25
2.7818066e-24
8.6574559e-25
7.0862658e-25
2.7900249e-24
3.2970952e-24
2.7833522e-24
1.6000815e-24
2.8766594e-24
9.4571689e-25
2.8861298e-24
9.7506448e-25
2.8842512e-24
8.6762425e-25
6.8846405e-25
2.9044137e-24
3.4870377e-24
2.9496687e-24
1.4830859e-24
2.9343451e-24
9.9038804e-25
2.9381852e-24
8.6378419e-25
6.4192038e-25
2.9847289e-24
3.6131956e-24
2.8985226e-24
1.705061e-24
2.925798e-24
8.3650878e-25
6.3838007e-25
2.3684468e-24
3.228848e-24
1.2982892e-23
1.15632e-23
1.0405355e-23
1.3587342e-23
9.9769602e-24
1.0162893e-23
1.4226343e-23
9.3379587e-24
9.0147666e-24
6.0165833e-24
1.0068865e-23
1.0078495e-23
1.0358325e-23
1.0311159e-23
9.9302303e-24
1.0655394e-23
8.9937232e-24
9.1493879e-24
7.5225895e-24
1.1425168e-23
7.7930856e-24
1.1870193e-23
9.6403397e-24
1.009916e-23
9.8211515e-24
1.0177514e-23
1.0128028e-23
9.6233536e-24
1.0172147e-23
8.9496046e-24
9.3940653e-24
8.3006709e-24
8.7485099e-24
8.438641e-24
1.189125e-23
8.7274523e-24
1.2008356e-23
7.5089549e-24
1.3287151e-23
9.4078738e-24
1.3978437e-23
9.2511625e-24
1.0334225e-23
9.6684647e-24
9.2060515e-24
1.0173637e-23
8.4444325e-24
9.9142904e-24
8.5600173e-24
9.5352069e-24
8.8177245e-24
9.2969382e-24
8.965721e-24
1.2298495e-23
9.0067993e-24
1.2178207e-23
1.103868e-23
8.4313943e-24
1.2941511e-23
9.2950878e-24
8.342358e-24
1.0446071e-23
7.2934493e-24
1.0562355e-23
8.4437334e-24
1.0503404e-23
8.8766755e-24
1.033414e-23
9.1349847e-24
1.056031e-23
8.780629e-24
1.4565242e-23
8.1732759e-24
9.3370433e-24
5.4804349e-24
9.6306682e-24
1.0876247e-23
9.0918791e-24
1.0126725e-23
1.1147084e-23
5.238244e-24
1.096667e-23
8.6241475e-24
1.0816341e-23
9.0270043e-24
1.089317e-23
9.0581562e-24
1.087504e-23
8.7987587e-24
1.0980124e-23
8.0681925e-24
9.3999992e-24
7.0605592e-24
1.150266e-23
7.5280071e-24
1.1646645e-23
9.4229412e-24
1.4667412e-23
1.0902925e-23
1.2388635e-23
1.0685504e-23
9.2444255e-24
1.0734319e-23
9.0093408e-24
1.0785461e-23
8.7476167e-24
1.0573919e-23
8.2797344e-24
9.7149004e-24
7.9195783e-24
8.9758382e-24
8.2670692e-24
1.1856649e-23
8.7658344e-24
1.232251e-23
1.2709077e-23
1.001261e-23
1.1940893e-23
1.0305094e-23
8.7168571e-24
1.0556052e-23
8.4966582e-24
1.0530723e-23
8.3050631e-24
1.0218643e-23
8.2316582e-24
1.0129337e-23
8.3563761e-24
1.0433785e-23
8.4613862e-24
1.4594313e-23
8.1619819e-24
9.2352885e-24
5.8694859e-24
9.9538621e-24
1.2511892e-23
9.8973674e-24
1.1331381e-23
1.0265208e-23
8.1288176e-24
1.0481734e-23
8.0885371e-24
1.0598133e-23
8.1152596e-24
1.0702062e-23
8.2524466e-24
1.096908e-23
8.1943684e-24
1.1216388e-23
7.9146733e-24
9.7086446e-24
7.3772297e-24
1.1639421e-23
8.0230858e-24
1.2078943e-23
1.2780283e-23
1.0083928e-23
1.0825173e-23
1.0369664e-23
7.8028001e-24
1.0614728e-23
7.8701961e-24
1.0939812e-23
7.9273623e-24
1.106813e-23
8.0660505e-24
1.11029e-23
7.8799031e-24
1.0685131e-23
7.7949989e-24
1.0775966e-23
7.932251e-24
7.7009481e-24
1.5153961e-23
1.3144201e-23
1.0245988e-23
1.0701013e-23
1.048007e-23
7.6361137e-24
1.078282e-23
7.6246128e-24
1.114403e-23
7.7048408e-24
1.1153837e-23
7.8700959e-24
1.1160243e-23
7.788593e-24
1.1491366e-23
7.6011281e-24
1.2064542e-23
7.1277717e-24
1.3161142e-23
1.0287168e-23
1.0510088e-23
1.0655373e-23
7.2564077e-24
1.0997746e-23
7.3624683e-24
1.1240205e-23
7.6276361e-24
1.1251057e-23
7.7777409e-24
7.474534e-24
1.1377652e-23
1.3116806e-23
1.0542691e-23
9.830523e-24
1.0997823e-23
6.9073364e-24
1.1076865e-23
7.5485937e-24
1.114178e-23
7.7128255e-24
7.4868866e-24
1.1129428e-23
1.3633433e-23
1.1093136e-23
9.4476331e-24
1.0967302e-23
7.6744282e-24
1.0832137e-23
7.8479897e-24
7.5020052e-24
1.0817019e-23
1.4323584e-23
1.0590251e-23
1.1407762e-23
1.0412855e-23
8.0253854e-24
7.4483445e-24
1.0466516e-23
8.3338699e-24
5.8505774e-24
9.5462376e-24
6.8130178e-24
1.0077546e-23
6.9170365e-24
1.2905481e-23
9.9100057e-24
9.8084928e-24
5.0113733e-24
8.9869342e-24
1.3266686e-23
-3.4669019e-24
1.1145831e-23
1.1565593e-23
-3.7811461e-24
-1.5984963e-24
9.6971871e-24
9.6427322e-24
-2.7972351e-24
1.3216209e-23
1.4480653e-25
1.0601552e-23
-1.166489e-24
-1.3431181e-24
1.0346174e-23
1.1472448e-23
-4.654248e-24
1.0129092e-23
-1.4538792e-24
1.1098339e-23
-8.244409e-25
1.0946283e-23
-1.0144329e-24
1.0701873e-23
-1.098708e-24
9.2163828e-24
-4.0820544e-24
1.1724719e-23
8.710634e-25
1.4484821e-23
3.8934877e-26
1.1214186e-23
-1.3836131e-24
1.1065842e-23
-1.3055358e-24
1.1235201e-23
-9.937994e-25
-8.9270063e-25
1.1113469e-23
8.9365467e-24
-4.6665757e-24
1.0876405e-23
2.0931931e-26
1.1649988e-23
1.4535451e-24
1.2314489e-23
1.5271069e-24
1.4854247e-23
4.8120022e-25
1.1456466e-23
-6.8427354e-25
1.235989e-23
-3.2360999e-26
1.2639623e-23
-2.4079735e-25
1.2050408e-23
-7.9439906e-25
1.1645669e-23
-9.0079658e-25
1.144147e-23
-7.8960056e-25
-6.891549e-25
1.1237925e-23
1.2008699e-23
7.1156988e-25
1.2170282e-23
1.1436726e-24
1.2208679e-23
1.2067959e-24
1.2205668e-23
1.1885233e-24
1.2151291e-23
1.1795797e-24
1.2096542e-23
1.2929868e-24
1.2290085e-23
1.5688501e-24
1.2416966e-23
1.5585484e-24
1.257364e-23
1.3967477e-24
1.2869938e-23
9.0977513e-25
1.4470267e-23
-5.7548533e-25
1.1047012e-23
-1.2433202e-24
1.1413432e-23
-3.4548807e-25
1.218328e-23
6.8369748e-25
1.2859463e-23
8.5092337e-25
1.298565e-23
3.5501302e-25
1.2464849e-23
-1.6347233e-25
1.2556316e-23
-1.2382846e-25
1.2546734e-23
-2.3121484e-25
1.2204614e-23
-4.5227864e-25
1.18381e-23
-5.3428269e-25
1.1554769e-23
-5.062703e-25
-4.6018611e-25
1.1325801e-23
1.2420047e-23
8.8812176e-25
1.2484726e-23
1.0789934e-24
1.2549571e-23
1.1419513e-24
1.2595983e-23
1.1421113e-24
1.2630137e-23
1.145426e-24
1.2716719e-23
1.2064041e-24
1.2977498e-23
1.3080713e-24
1.3253732e-23
1.282315e-24
1.3539816e-23
1.1106634e-24
1.3748983e-23
7.0060793e-25
1.3218184e-23
-4.4686361e-26
1.23622e-23
-3.8733589e-25
1.2136652e-23
-1.1994003e-25
1.2439931e-23
3.8041879e-25
1.2787832e-23
5.0302222e-25
1.2848366e-23
2.9447833e-25
1.2635478e-23
4.9416455e-26
1.2530132e-23
-1.8483093e-26
1.2394544e-23
-9.5626222e-26
1.2138785e-23
-1.9651971e-25
1.1853489e-23
-2.489875e-25
1.1603858e-23
-2.5663836e-25
-2.5216949e-25
1.1395841e-23
1.2653061e-23
1.0249746e-24
1.2629683e-23
1.1023717e-24
1.2657707e-23
1.1139271e-24
1.2714062e-23
1.0857563e-24
1.2797527e-23
1.0619605e-24
1.2934089e-23
1.0698424e-24
1.3154015e-23
1.0881451e-24
1.3390872e-23
1.0454584e-24
1.3595168e-23
9.0636719e-25
1.3653975e-23
6.4180074e-25
1.3327047e-23
2.8224127e-25
1.2839025e-23
1.0068679e-25
1.2556811e-23
1.6227415e-25
1.2586475e-23
3.5075428e-25
1.2690066e-23
3.994314e-25
1.2679623e-23
3.0492157e-25
1.254536e-23
1.8367892e-25
1.2408159e-23
1.1871834e-25
1.225123e-23
6.1302471e-26
1.2050945e-23
3.7654502e-27
1.183764e-23
-3.5682148e-26
1.1639176e-23
-5.8174684e-26
-7.3554189e-26
1.1460561e-23
1.2957286e-23
1.1533533e-24
1.2849476e-23
1.2101817e-24
1.2810517e-23
1.1528854e-24
1.284385e-23
1.0524239e-24
1.2929562e-23
9.7624867e-25
1.3048115e-23
9.512887e-25
1.3184007e-23
9.5225328e-25
1.3311709e-23
9.1775676e-25
1.3400994e-23
8.1708235e-25
1.3390763e-23
6.5203092e-25
1.3200247e-23
4.7275801e-25
1.2923719e-23
3.7721444e-25
1.2708269e-23
3.7772457e-25
1.2634636e-23
4.243872e-25
1.2613188e-23
4.208792e-25
1.2552461e-23
3.6564811e-25
1.2438633e-23
2.9750728e-25
1.2308932e-23
2.4841964e-25
1.2166059e-23
2.041756e-25
1.2006083e-23
1.6374055e-25
1.1839275e-23
1.311264e-25
1.1675252e-23
1.0584865e-25
8.5130415e-26
1.1516567e-23
1.3303687e-23
1.293012e-24
1.3061811e-23
1.4520573e-24
1.2910184e-23
1.3045127e-24
1.2929674e-23
1.0329345e-24
1.3051e-23
8.5492263e-25
1.3171724e-23
8.3056421e-25
1.3224096e-23
8.9988156e-25
1.3227665e-23
9.1418723e-25
1.3215667e-23
8.2908066e-25
1.3193512e-23
6.7418556e-25
1.310141e-23
5.6486002e-25
1.2947094e-23
5.3153118e-25
1.2782729e-23
5.4208875e-25
1.2669151e-23
5.3796575e-25
1.2587583e-23
5.0244741e-25
1.2494872e-23
4.5835913e-25
1.238345e-23
4.0892846e-25
1.226117e-23
3.7070026e-25
1.2131995e-23
3.3335073e-25
1.1994202e-23
3.0153371e-25
1.1850577e-23
2.7475122e-25
1.1703498e-23
2.5292744e-25
2.3415664e-25
1.1554472e-23
1.355084e-23
1.5032371e-24
1.3069254e-23
1.9336432e-24
1.2820655e-23
1.5531126e-24
1.2908355e-23
9.4523437e-25
1.3129556e-23
6.3372109e-25
1.329518e-23
6.6494035e-25
1.3269812e-23
9.2525017e-25
1.3138764e-23
1.0452344e-24
1.3089208e-23
8.7863732e-25
1.3113441e-23
6.499521e-25
1.311574e-23
5.625614e-25
1.3021254e-23
6.2601692e-25
1.2875388e-23
6.8795516e-25
1.2744151e-23
6.6920259e-25
1.2627573e-23
6.1902522e-25
1.2509863e-23
5.7606968e-25
1.2376668e-23
5.4212279e-25
1.2247949e-23
4.9941971e-25
1.2118871e-23
4.6242891e-25
1.1988151e-23
4.3225287e-25
1.1852697e-23
4.1020544e-25
1.1712746e-23
3.9287834e-25
1.1567964e-23
3.7893898e-25
1.3605354e-23
1.8531857e-24
1.2696062e-23
2.8429351e-24
1.23905e-23
1.8586743e-24
1.2723432e-23
6.1230263e-25
1.3177124e-23
1.8002943e-25
1.3498351e-23
3.437134e-25
1.3374263e-23
1.0493374e-24
1.3035286e-23
1.3842116e-24
1.2955003e-23
9.5892088e-25
1.312004e-23
4.849145e-25
1.3283345e-23
3.99257e-25
1.3236682e-23
6.7267931e-25
1.3039256e-23
8.8538115e-25
1.2872055e-23
8.3640396e-25
1.272828e-23
7.6279958e-25
1.2563895e-23
7.4045469e-25
1.2399482e-23
7.0653669e-25
1.22428e-23
6.5610166e-25
1.2102997e-23
6.0223127e-25
1.1968784e-23
5.6646627e-25
1.1835309e-23
5.4368007e-25
5.3103539e-25
1.1697152e-23
1.5307079e-23
1.1452106e-23
6.6979078e-24
1.1668594e-23
1.6421867e-24
1.2436046e-23
-1.5514994e-25
1.31345e-23
-5.1842464e-25
1.3684354e-23
-2.0614077e-25
1.3362793e-23
1.3708984e-24
1.2634671e-23
2.1123343e-24
1.2627304e-23
9.6628805e-25
1.3103522e-23
8.6959587e-27
1.3542655e-23
-3.9875504e-26
1.3502367e-23
7.1296702e-25
1.3154244e-23
1.2335038e-24
1.299972e-23
9.9092804e-25
1.2883345e-23
8.7917511e-25
1.26703e-23
9.5349917e-25
1.2444496e-23
9.3234121e-25
1.2242066e-23
8.5853105e-25
1.2078683e-23
7.6561458e-25
1.1934945e-23
7.1020412e-25
1.1798091e-23
6.8053414e-25
6.7022152e-25
1.1658905e-23
9.0918975e-24
1.1251054e-23
1.2010244e-23
1.2473253e-23
1.3030467e-23
1.5017334e-23
1.1417244e-23
5.7124235e-24
1.1959646e-23
4.238861e-25
1.2897572e-23
-9.2922973e-25
1.369175e-23
-8.3405384e-25
1.3539046e-23
8.6567139e-25
1.2867603e-23
1.9049472e-24
1.2962146e-23
8.9638478e-25
1.3027865e-23
8.1345584e-25
1.2737611e-23
1.2437533e-24
1.2448828e-23
1.2211245e-24
1.2205628e-23
1.1017303e-24
1.2030454e-23
9.4078941e-25
1.1883976e-23
8.566822e-25
1.1747462e-23
8.1704805e-25
1.1603989e-23
8.1369378e-25
9.2837026e-24
1.12328e-23
1.2139153e-23
1.2849154e-23
1.4724019e-23
1.1516879e-23
5.1120875e-24
1.2654381e-23
-2.4111767e-25
1.3136125e-23
3.3171229e-25
1.259726e-23
1.7826183e-24
1.230034e-23
1.5180447e-24
1.2059511e-23
1.342559e-24
1.1927808e-23
1.0724927e-24
1.1809299e-23
9.7519136e-25
9.3528783e-25
1.1691059e-23
9.0844771e-24
1.1934207e-23
1.5243096e-23
1.1850723e-23
5.1749907e-24
1.1969471e-23
1.3992969e-24
1.1711152e-23
1.6008779e-24
1.1751806e-23
1.0318384e-24
1.1694631e-23
1.0323672e-24
9.9142544e-25
1.1638493e-23
9.8535666e-24
1.402261e-23
1.0966183e-23
4.6573043e-24
1.1583534e-23
4.1448804e-25
1.1505915e-23
1.1099855e-24
8.829596e-25
1.1614381e-23
9.487956e-24
1.3716525e-23
1.1089703e-23
3.7368065e-24
2.7841891e-25
1.1694244e-23
1.0023373e-23
1.3788443e-23
1.6269548e-23
-5.3949159e-24
2.9702847e-25
2.2372123e-23
1.406194e-23
-1.0483688e-23
2.1538171e-23
-2.2955371e-24
1.7812717e-23
-1.6694619e-24
-6.8373224e-25
1.8793477e-23
2.3163891e-23
-3.5007315e-24
1.7454908e-23
-4.7747051e-24
1.82357e-23
-3.0763283e-24
1.83974e-23
-1.8311628e-24
-9.5541015e-25
1.8669078e-23
1.985493e-23
-3.9504956e-24
1.9010958e-23
-3.9307331e-24
1.8855327e-23
-2.9206973e-24
1.879486e-23
-1.7706955e-24
-8.8200902e-25
1.8721459e-23
1.9655184e-23
-4.4604091e-24
1.9496536e-23
-3.7720849e-24
1.9331399e-23
-2.7555604e-24
1.9171646e-23
-1.6109429e-24
-6.0256791e-25
1.8892205e-23
1.9641489e-23
-4.922748e-24
1.9613812e-23
-3.7444078e-24
1.9597334e-23
-2.7390825e-24
1.9410127e-23
-1.4237357e-24
-2.2609639e-25
1.9033656e-23
1.9441681e-23
-5.3496487e-24
1.9409871e-23
-3.7125979e-24
1.9805666e-23
-3.1348777e-24
1.9738513e-23
-1.3565826e-24
3.5051537e-25
1.9161902e-23
1.9397029e-23
-5.9753272e-24
1.874379e-23
-3.0593595e-24
1.9951018e-23
-4.3421055e-24
2.0011372e-23
-1.4169365e-24
1.4607351e-24
1.8901152e-23
1.8885413e-23
1.690851e-23
1.9179878e-23
2.2765411e-23
6.8012658e-24
1.742488e-23
1.4069303e-23
-3.1187801e-24
-2.3688698e-24
-2.4646492e-24
-2.2898671e-24
-2.4751425e-24
-2.1907057e-24
-2.4699151e-24
-2.0775899e-24
-2.4495601e-24
-2.7902196e-24
-2.4061504e-24
-3.1469889e-24
-2.2676694e-24
-2.5500199e-24
-2.1664659e-24
-2.576346e-24
-2.0358568e-24
-2.6005242e-24
-1.8597251e-24
-2.6256918e-24
-1.611444e-24
-2.6544315e-24
-2.0641169e-24
-2.6943159e-24
-2.7918204e-24
-2.1722519e-24
-2.6499018e-24
-2.0577225e-24
-2.6908754e-24
-1.9100392e-24
-2.7482075e-24
-1.6922027e-24
-2.8435283e-24
-1.3397691e-24
-3.0068651e-24
-8.1326132e-25
-3.2208237e-24
-4.057883e-24
-2.0779988e-24
-2.7575974e-24
-1.9629126e-24
-2.8059616e-24
-1.8366775e-24
-2.8744426e-24
-1.7053824e-24
-2.9748234e-24
-1.6046255e-24
-3.107622e-24
-1.5990681e-24
-3.2263811e-24
-2.430208e-24
-3.2267431e-24
-3.6524071e-24
-1.9747159e-24
-2.8701389e-24
-1.8614733e-24
-2.9192042e-24
-1.7527066e-24
-2.9832093e-24
-1.6590817e-24
-3.0684483e-24
-1.5982748e-24
-3.1684288e-24
-1.5779425e-24
-3.2467134e-24
-1.5632586e-24
-3.241427e-24
-2.0986811e-24
-3.1169846e-24
-3.7255285e-24
-1.8562116e-24
-2.9901312e-24
-1.7390171e-24
-3.0363987e-24
-1.6306622e-24
-3.0915643e-24
-1.5407137e-24
-3.1583968e-24
-1.4766594e-24
-3.2324831e-24
-1.4321192e-24
-3.2912536e-24
-1.3734157e-24
-3.3001305e-24
-1.2462978e-24
-3.2441025e-24
-1.7925675e-24
-3.1792588e-24
-3.8127978e-24
-1.7203017e-24
-3.1233295e-24
-1.594697e-24
-3.1620034e-24
-1.4784908e-24
-3.2077705e-24
-1.3773599e-24
-3.2595277e-24
-1.2948791e-24
-3.314964e-24
-1.2244628e-24
-3.3616699e-24
-1.1438713e-24
-3.380722e-24
-1.0270915e-24
-3.3608823e-24
-8.947529e-25
-3.3115974e-24
-1.465539e-24
-3.2420116e-24
-3.8168211e-24
-1.5633861e-24
-3.266365e-24
-1.4303937e-24
-3.2949958e-24
-1.3068223e-24
-3.3313419e-24
-1.1916206e-24
-3.3747294e-24
-1.0892045e-24
-3.41738e-24
-9.9404329e-25
-3.4568311e-24
-8.9009628e-25
-3.484669e-24
-7.5417562e-25
-3.496803e-24
-5.6945915e-25
-3.4963139e-24
-3.2452932e-25
-3.4869415e-24
-6.6097189e-25
-3.4803785e-24
-3.4951853e-24
-1.3775919e-24
-3.402831e-24
-1.245739e-24
-3.4268488e-24
-1.1174919e-24
-3.4595889e-24
-9.9549034e-25
-3.496731e-24
-8.781357e-25
-3.5347347e-24
-7.6648944e-25
-3.5684774e-24
-6.5005804e-25
-3.6011004e-24
-5.0701978e-25
-3.6398412e-24
-3.0692649e-25
-3.6964072e-24
-3.1835244e-27
-3.7906845e-24
4.5504021e-25
-3.9386022e-24
-4.5896922e-24
-1.0473593e-24
-2.7556099e-24
-1.2781436e-24
-3.1986789e-24
-1.2616963e-24
-3.4135897e-24
-1.1638208e-24
-3.5007065e-24
-1.0408243e-24
-3.5498452e-24
-9.1244559e-25
-3.5879676e-24
-7.8576113e-25
-3.6234154e-24
-6.6384201e-25
-3.6566538e-24
-5.4545239e-25
-3.686867e-24
-4.2974205e-25
-3.7168108e-24
-3.1508343e-25
-3.7544999e-24
-2.0391689e-25
-3.8075738e-24
-1.2125697e-25
-3.8733444e-24
-1.4416008e-25
-3.9156991e-24
-9.0010089e-25
-3.8337513e-24
-4.0319394e-24
-2.3203909e-24
-1.2075315e-24
-4.3115381e-24
-1.0664532e-24
-3.554668e-24
-9.4506638e-25
-3.6220934e-24
-8.1869305e-25
-3.6762186e-24
-6.8971039e-25
-3.7169503e-24
-5.620419e-25
-3.7510839e-24
-4.3847952e-25
-3.7802162e-24
-3.2009373e-25
-3.8052528e-24
-2.0976394e-25
-3.8271406e-24
-1.1185728e-25
-3.8524065e-24
-3.5221248e-26
-3.8842098e-24
5.7494169e-27
-3.9143151e-24
-1.7320285e-27
-3.9082177e-24
-3.5214436e-26
-3.8002689e-24
-4.7439162e-25
-3.5927622e-24
-3.9394292e-24
-7.7919954e-25
-3.0237965e-24
-8.0310089e-25
-3.5307667e-24
-6.9899813e-25
-3.7261961e-24
-5.7561382e-25
-3.7996029e-24
-4.4768543e-25
-3.8448787e-24
-3.2070901e-25
-3.8780603e-24
-1.9774587e-25
-3.9031793e-24
-8.113175e-26
-3.9218669e-24
2.700935e-26
-3.9352817e-24
1.2112704e-25
-3.9465242e-24
1.9476489e-25
-3.9578477e-24
2.4478477e-25
-3.9643349e-24
2.8379815e-25
-3.9472311e-24
3.6192961e-25
-3.8784004e-24
5.3764019e-25
-3.7684728e-24
2.6348433e-25
-3.6652733e-24
-3.5751188e-24
-1.8232102e-24
-6.3450535e-25
-4.7194714e-24
-4.3981296e-25
-3.9208885e-24
-3.1018722e-25
-3.9292286e-24
-1.8485592e-25
-3.97021e-24
-5.9871298e-26
-4.003045e-24
6.1048734e-26
-4.0240994e-24
1.7547686e-25
-4.036295e-24
2.8191146e-25
-4.0417163e-24
3.7727186e-25
-4.0418846e-24
4.5803929e-25
-4.0386151e-24
5.2554158e-25
-4.0318372e-24
5.968315e-25
-4.018521e-24
7.1888028e-25
-4.0004492e-24
9.4507534e-25
-3.9946679e-24
1.2918852e-24
-4.0120831e-24
-4.4421619e-24
4.8994942e-26
-3.6264296e-24
-6.605242e-26
-3.8058412e-24
-1.9958421e-26
-3.9753226e-24
9.2184698e-26
-4.0823531e-24
2.172115e-25
-4.1280718e-24
3.3747748e-25
-4.1443653e-24
4.4948489e-25
-4.1483024e-24
5.5297351e-25
-4.1452049e-24
6.4714026e-25
-4.1360514e-24
7.3054988e-25
-4.1220247e-24
8.0505249e-25
-4.1063398e-24
8.7953931e-25
-4.0930078e-24
9.6621939e-25
-4.0871293e-24
1.0585207e-24
-4.0869692e-24
1.1109602e-24
-4.0645226e-24
6.2173418e-25
-3.9529359e-24
-3.581819e-24
1.3378477e-25
-2.9888557e-24
6.1118554e-26
-3.7331749e-24
2.105101e-25
-4.1247141e-24
3.7106618e-25
-4.2429092e-24
5.1123696e-25
-4.2682425e-24
6.3271246e-25
-4.2658408e-24
7.4113922e-25
-4.2567292e-24
8.3996506e-25
-4.2440307e-24
9.3054846e-25
-4.2266348e-24
1.0123991e-24
-4.2038754e-24
1.085048e-24
-4.1789887e-24
1.1505402e-24
-4.1585001e-24
1.2135355e-24
-4.1501246e-24
1.283509e-24
-4.1569427e-24
1.3904703e-24
-4.1714839e-24
1.6229455e-24
-4.1854111e-24
-4.4762724e-24
-1.109609e-24
1.1215177e-25
-4.9549356e-24
4.7932604e-25
-4.4918884e-24
6.9320561e-25
-4.4567887e-24
8.3753487e-25
-4.4125718e-24
9.5189933e-25
-4.3802053e-24
1.0519523e-24
-4.3567822e-24
1.1431664e-24
-4.3352448e-24
1.2267591e-24
-4.3102274e-24
1.3025395e-24
-4.2796558e-24
1.3690438e-24
-4.245493e-24
1.4237542e-24
-4.2132105e-24
1.4635025e-24
-4.1898728e-24
1.4830935e-24
-4.1765338e-24
1.469538e-24
-4.1579284e-24
1.3766166e-24
-4.0924896e-24
7.9745584e-25
-3.8971116e-24
-3.773961e-24
8.9301398e-25
-4.4817791e-24
1.0368701e-24
-4.6357445e-24
1.1336887e-24
-4.5536074e-24
1.2173984e-24
-4.4962814e-24
1.3003453e-24
-4.4631522e-24
1.3829977e-24
-4.4394346e-24
1.4625936e-24
-4.4148406e-24
1.5368998e-24
-4.3845337e-24
1.6045354e-24
-4.3472914e-24
1.6633765e-24
-4.3043341e-24
1.7096273e-24
-4.2594612e-24
1.737404e-24
-4.2176496e-24
1.7398035e-24
-4.1789333e-24
1.7117633e-24
-4.1298883e-24
1.6567453e-24
-4.0374716e-24
1.6130271e-24
-3.8533933e-24
1.4615018e-24
-3.6224357e-24
-3.4100243e-24
1.8506299e-24
-4.29162e-24
1.6833223e-24
-4.4684369e-24
1.618399e-24
-4.4886841e-24
1.6237302e-24
-4.5016126e-24
1.6684765e-24
-4.5078985e-24
1.730637e-24
-4.5015951e-24
1.7969688e-24
-4.4811724e-24
1.8606672e-24
-4.4482321e-24
1.9188235e-24
-4.4054477e-24
1.9694097e-24
-4.3549203e-24
2.0095426e-24
-4.2995941e-24
2.0346169e-24
-4.2427238e-24
2.0404835e-24
-4.1847999e-24
2.0290041e-24
-4.1184089e-24
2.0203338e-24
-4.0288013e-24
2.0848437e-24
-3.9179032e-24
2.3013176e-24
-3.8389096e-24
-4.0373741e-24
2.2953741e-24
-4.1288556e-24
2.1250429e-24
-4.2981056e-24
2.0355138e-24
-4.399155e-24
2.0160637e-24
-4.4821625e-24
2.0419537e-24
-4.5337885e-24
2.0898604e-24
-4.5495018e-24
2.1440459e-24
-4.5353579e-24
2.1966873e-24
-4.5008736e-24
2.2443768e-24
-4.4531371e-24
2.2855966e-24
-4.3961401e-24
2.318675e-24
-4.3326725e-24
2.3406267e-24
-4.2646755e-24
2.349567e-24
-4.1937402e-24
2.348899e-24
-4.1177409e-24
2.3522446e-24
-4.0321469e-24
2.3693887e-24
-3.9350473e-24
2.359005e-24
-3.8285259e-24
2.0004409e-24
-3.6788099e-24
-3.3344142e-24
2.3883295e-24
-4.2605764e-24
2.3999233e-24
-4.3096995e-24
2.3842045e-24
-4.3834362e-24
2.3890111e-24
-4.4869691e-24
2.4172533e-24
-4.5620306e-24
2.458351e-24
-4.5905995e-24
2.5022575e-24
-4.5792643e-24
2.5435916e-24
-4.5422077e-24
2.5799755e-24
-4.4895211e-24
2.6108322e-24
-4.4269967e-24
2.6352326e-24
-4.3570728e-24
2.6522211e-24
-4.2816641e-24
2.6607273e-24
-4.2022464e-24
2.6621622e-24
-4.1191758e-24
2.6617488e-24
-4.0317335e-24
2.6668473e-24
-3.9401458e-24
2.6859672e-24
-3.8476458e-24
2.7706386e-24
-3.7634813e-24
-3.8134365e-24
2.6761344e-24
-4.251893e-24
2.6928733e-24
-4.3264383e-24
2.7235548e-24
-4.4141177e-24
2.7597246e-24
-4.5231388e-24
2.7983641e-24
-4.6006701e-24
2.835914e-24
-4.6281495e-24
2.8701275e-24
-4.6134779e-24
2.899519e-24
-4.5715992e-24
2.9240393e-24
-4.5140414e-24
2.943174e-24
-4.4461314e-24
2.9569252e-24
-4.370824e-24
2.9650734e-24
-4.2898123e-24
2.9669007e-24
-4.2040737e-24
2.9626678e-24
-4.1149429e-24
2.9538636e-24
-4.0229294e-24
2.9415709e-24
-3.9278531e-24
2.9212323e-24
-3.8273072e-24
2.870997e-24
-3.713246e-24
2.6121915e-24
-3.5546309e-24
-3.2304272e-24
2.8544858e-24
-4.3326796e-24
2.9666329e-24
-4.4385854e-24
3.066105e-24
-4.5135898e-24
3.1390396e-24
-4.5960733e-24
3.1886505e-24
-4.6502811e-24
3.2224459e-24
-4.6619449e-24
3.2462979e-24
-4.6373298e-24
3.2633537e-24
-4.588655e-24
3.274833e-24
-4.5255207e-24
3.2814605e-24
-4.4527589e-24
3.2834305e-24
-4.372794e-24
3.280627e-24
-4.2870088e-24
3.2730105e-24
-4.1964572e-24
3.2604096e-24
-4.102342e-24
3.2432543e-24
-4.0057741e-24
3.2225481e-24
-3.9071469e-24
3.2013852e-24
-3.8061442e-24
3.1902077e-24
-3.7020686e-24
3.2372614e-24
-3.6016846e-24
-3.5352413e-24
3.0374934e-24
-4.5760967e-24
3.2762488e-24
-4.6773408e-24
3.4402801e-24
-4.6776212e-24
3.5388071e-24
-4.6946003e-24
3.5917726e-24
-4.7032466e-24
3.6177742e-24
-4.6879464e-24
3.6292452e-24
-4.6488009e-24
3.6327077e-24
-4.5921176e-24
3.630688e-24
-4.523501e-24
3.6241599e-24
-4.4462308e-24
3.6133895e-24
-4.3620235e-24
3.5985942e-24
-4.2722135e-24
3.5798128e-24
-4.1776758e-24
3.5570257e-24
-4.0795549e-24
3.5303821e-24
-3.9791304e-24
3.5007573e-24
-3.8775222e-24
3.4690136e-24
-3.7744004e-24
3.4306856e-24
-3.6637406e-24
3.3563799e-24
-3.5273789e-24
3.1376591e-24
-3.3165204e-24
-2.9575716e-24
3.499849e-24
-4.8254608e-24
3.7352183e-24
-4.9127101e-24
3.8882729e-24
-4.8306758e-24
3.9726569e-24
-4.7789842e-24
4.0102782e-24
-4.7408679e-24
4.020725e-24
-4.6983932e-24
4.0170424e-24
-4.6451183e-24
4.0057486e-24
-4.5808238e-24
3.9894414e-24
-4.5071938e-24
3.9692332e-24
-4.4260225e-24
3.9454264e-24
-4.3382167e-24
3.9181133e-24
-4.2449005e-24
3.8873499e-24
-4.1469124e-24
3.8533313e-24
-4.0455363e-24
3.8165535e-24
-3.9423526e-24
3.7786365e-24
-3.8396052e-24
3.7442762e-24
-3.7400402e-24
3.7252992e-24
-3.6447636e-24
3.7503057e-24
-3.5523853e-24
3.8920816e-24
-3.4582963e-24
-3.2253727e-24
4.2737492e-24
-6.7986427e-24
4.3582675e-24
-4.9972284e-24
4.4099312e-24
-4.8823395e-24
4.4370228e-24
-4.8060759e-24
4.4409276e-24
-4.7447727e-24
4.4287278e-24
-4.6861933e-24
4.4071463e-24
-4.6235367e-24
4.3799985e-24
-4.553676e-24
4.3491886e-24
-4.4763839e-24
4.314956e-24
-4.3917899e-24
4.2776973e-24
-4.300958e-24
4.237388e-24
-4.2045912e-24
4.1944226e-24
-4.103947e-24
4.1486309e-24
-3.9997445e-24
4.1002218e-24
-3.8939435e-24
4.0500499e-24
-3.7894333e-24
4.0001249e-24
-3.6901151e-24
3.9546296e-24
-3.5992683e-24
3.9198568e-24
-3.5176125e-24
3.9047396e-24
-3.4431791e-24
-3.1859435e-24
7.80657e-24
-3.2474494e-24
5.2655827e-24
-4.2576555e-24
5.0028658e-24
-4.7345115e-24
4.9305377e-24
-4.8100114e-24
4.8999407e-24
-4.7754788e-24
4.8705109e-24
-4.7153429e-24
4.8356261e-24
-4.6513086e-24
4.7959649e-24
-4.5838755e-24
4.7530936e-24
-4.5108048e-24
4.7073492e-24
-4.4306394e-24
4.6590894e-24
-4.3435301e-24
4.6083215e-24
-4.2501902e-24
4.5552906e-24
-4.1515603e-24
4.4997955e-24
-4.0484519e-24
4.4418745e-24
-3.9418236e-24
4.3812315e-24
-3.8333005e-24
4.3171884e-24