/*--------------------------------*- C++ -*----------------------------------*\
| =========                 |                                                 |
| \\      /  F ield         | OpenFOAM: The Open Source CFD Toolbox           |
|  \\    /   O peration     | Version:  2412                                  |
|   \\  /    A nd           | Website:  www.openfoam.com                      |
|    \\/     M anipulation  |                                                 |
\*---------------------------------------------------------------------------*/
FoamFile
{
    version     2.0;
    format      ascii;
    arch        "LSB;label=32;scalar=64";
    class       volVectorField;
    location    "15174";
    object      U;
}
// * * * * * * * * * * * * * * * * * * * * * * * * * * * * * * * * * * * * * //

dimensions      [0 1 -1 0 0 0 0];

internalField   nonuniform List<vector> 
57900
(
(4.90341e-08 2.5293597e-08 6.8882342e-27)
(2.1163519e-08 1.2036145e-08 9.1272279e-26)
(1.7896182e-07 1.0603041e-07 1.8687902e-26)
(1.154222e-07 6.5347192e-08 1.6551333e-26)
(5.2944979e-08 3.0395008e-08 -4.4003736e-26)
(3.167971e-08 1.6424984e-08 1.060308e-26)
(2.2662429e-08 1.0195392e-08 -1.1655167e-25)
(2.6387899e-07 1.5938849e-07 -3.6175618e-26)
(2.0916217e-07 1.2776715e-07 -4.6967438e-27)
(1.4984346e-07 9.0950407e-08 3.3169153e-26)
(8.852706e-08 5.2114833e-08 -3.831672e-26)
(4.9743813e-08 2.5196461e-08 -2.3935897e-26)
(2.1111523e-08 1.2036056e-08 1.0507066e-25)
(3.2907703e-07 2.0247889e-07 -7.3195614e-26)
(2.8575575e-07 1.778858e-07 -7.5741218e-26)
(2.3598034e-07 1.4920567e-07 3.6365714e-26)
(1.8123925e-07 1.152434e-07 3.2655941e-26)
(1.1590912e-07 6.8239758e-08 3.0535478e-26)
(5.2674627e-08 3.0798494e-08 -3.4638176e-25)
(3.1942305e-08 1.6233893e-08 6.4948003e-26)
(2.2322453e-08 9.5922613e-09 2.0677091e-26)
(3.7426485e-07 2.3479604e-07 1.222967e-25)
(3.4264721e-07 2.1775421e-07 -2.6702358e-26)
(3.0566918e-07 1.9597868e-07 -6.9584686e-27)
(2.6262317e-07 1.6915771e-07 4.8497732e-26)
(2.0774744e-07 1.3279673e-07 -2.6762372e-26)
(1.4733648e-07 9.2437677e-08 -7.8210437e-26)
(8.8725241e-08 5.2160608e-08 1.0180876e-25)
(5.0512148e-08 2.5097996e-08 -1.7102387e-26)
(3.1494927e-08 1.6343431e-08 -9.5714933e-26)
(2.0828731e-08 9.6323875e-09 1.2655078e-26)
(4.0211154e-07 2.5824437e-07 -3.729037e-25)
(3.7809065e-07 2.4486537e-07 -5.0082433e-26)
(3.541442e-07 2.3017617e-07 8.9074456e-26)
(3.2439289e-07 2.1121823e-07 -1.5402347e-25)
(2.8268482e-07 1.8369615e-07 7.9263814e-26)
(2.3300632e-07 1.5239681e-07 -9.8525453e-26)
(1.8080485e-07 1.1710653e-07 -4.6952533e-26)
(1.2173351e-07 7.230751e-08 -1.1988122e-26)
(7.9519269e-08 4.7033249e-08 9.777659e-27)
(4.5216351e-08 2.3704811e-08 -1.5696998e-25)
(2.78493e-08 1.5143125e-08 1.0268035e-25)
(1.8693407e-08 8.8079772e-09 -6.6883173e-26)
(4.0182316e-07 2.6363924e-07 2.0000557e-24)
(3.976114e-07 2.6333567e-07 1.702276e-26)
(3.8234427e-07 2.5194808e-07 1.6859945e-25)
(3.6689535e-07 2.415611e-07 -2.5984273e-26)
(3.3780661e-07 2.2238263e-07 6.1852877e-26)
(3.0056566e-07 1.9792109e-07 -6.2209462e-27)
(2.5869325e-07 1.6897447e-07 4.1600957e-26)
(2.1109417e-07 1.3467909e-07 -2.0741725e-26)
(1.6433942e-07 1.0250655e-07 3.2516846e-26)
(1.1026974e-07 6.4265881e-08 4.2620347e-27)
(7.0556309e-08 4.1567713e-08 4.8209424e-27)
(3.9224033e-08 2.0182384e-08 5.558886e-26)
(1.6528587e-08 9.2220222e-09 -1.469324e-26)
(3.9793868e-07 2.6414584e-07 -1.8425359e-24)
(3.9701776e-07 2.6262816e-07 4.0139358e-25)
(3.9212928e-07 2.6185821e-07 -5.7600553e-25)
(3.7227898e-07 2.480211e-07 -4.3593844e-27)
(3.4612991e-07 2.2970174e-07 2.7238913e-26)
(3.145084e-07 2.0620722e-07 -2.9254784e-26)
(2.7829562e-07 1.7861706e-07 1.8468222e-26)
(2.3892662e-07 1.5120417e-07 2.6313003e-27)
(1.9362066e-07 1.2025077e-07 8.8591157e-27)
(1.4690986e-07 8.9641236e-08 3.8281786e-26)
(9.2349202e-08 5.2599419e-08 -4.2979881e-26)
(4.1210474e-08 2.2977138e-08 1.0534015e-25)
(2.4719294e-08 1.2007827e-08 -8.6969323e-26)
(1.7179709e-08 7.1155187e-09 -1.6001017e-25)
(3.9209602e-07 2.6472948e-07 2.1010524e-24)
(3.8934451e-07 2.6302028e-07 2.4842513e-25)
(3.7255108e-07 2.5025691e-07 9.2303912e-26)
(3.5100993e-07 2.3301852e-07 3.6532465e-26)
(3.2563021e-07 2.1219793e-07 6.0632875e-27)
(2.9560576e-07 1.8978918e-07 -1.3792615e-26)
(2.5883554e-07 1.6332377e-07 -2.0187033e-26)
(2.171067e-07 1.3571048e-07 -7.5626205e-26)
(1.6860417e-07 1.0441593e-07 4.1447261e-26)
(1.1825479e-07 7.1602026e-08 -9.0864803e-26)
(6.9954021e-08 3.9684676e-08 5.2179038e-27)
(3.918055e-08 1.8853987e-08 5.94352e-26)
(2.4230309e-08 1.2334039e-08 3.1440132e-26)
(1.6004204e-08 7.2648298e-09 4.5482802e-26)
(3.8926984e-07 2.64718e-07 -1.735619e-24)
(3.8652771e-07 2.6327728e-07 -2.9709925e-25)
(3.7213801e-07 2.5006358e-07 7.331188e-26)
(3.5702206e-07 2.3635957e-07 6.3129565e-26)
(3.3697383e-07 2.2061728e-07 -1.1682789e-27)
(3.0837783e-07 1.9962097e-07 2.0363162e-26)
(2.7375433e-07 1.7561907e-07 -1.9451556e-26)
(2.3312029e-07 1.4853922e-07 5.7975319e-27)
(1.8906457e-07 1.2102357e-07 -2.0850026e-29)
(1.4518977e-07 9.2212333e-08 6.393619e-27)
(9.6375399e-08 5.6302385e-08 -1.5927321e-26)
(6.2099908e-08 3.6174906e-08 -1.9139351e-26)
(3.4868218e-08 1.7954838e-08 -3.2041972e-26)
(2.1321872e-08 1.1449479e-08 6.6571604e-26)
(3.8537933e-07 2.6494663e-07 8.810584e-25)
(3.8458355e-07 2.6196454e-07 6.3596338e-26)
(3.7533543e-07 2.5174468e-07 -2.4968568e-25)
(3.649883e-07 2.4311585e-07 -2.6061383e-26)
(3.4410581e-07 2.2799178e-07 8.2062376e-26)
(3.171442e-07 2.0877501e-07 1.9372899e-26)
(2.8466429e-07 1.8622964e-07 -9.8761016e-26)
(2.4866322e-07 1.6229006e-07 3.0429682e-26)
(2.1130359e-07 1.367053e-07 -9.1584855e-27)
(1.7033515e-07 1.0778599e-07 -4.6965761e-27)
(1.3088415e-07 8.0899353e-08 2.0068926e-26)
(8.669114e-08 4.9900365e-08 5.8432722e-29)
(5.4949158e-08 3.175668e-08 -1.2517274e-26)
(3.8447603e-07 2.6092004e-07 1.3563291e-24)
(3.8432219e-07 2.5933432e-07 2.9633795e-27)
(3.8089941e-07 2.5889792e-07 2.5722283e-25)
(3.6655181e-07 2.4812135e-07 8.3128741e-26)
(3.4722718e-07 2.3389819e-07 1.0194947e-25)
(3.2244763e-07 2.1585098e-07 -7.1248092e-27)
(2.9382549e-07 1.9518278e-07 -3.3664688e-26)
(2.6278079e-07 1.7211998e-07 -2.9440043e-26)
(2.2874913e-07 1.4651269e-07 1.4092744e-26)
(1.9342852e-07 1.2169196e-07 -4.6657203e-27)
(1.5501779e-07 9.5115229e-08 4.833119e-28)
(1.166799e-07 6.969058e-08 2.0442684e-26)
(3.7846072e-07 2.6099608e-07 3.064237e-24)
(3.7657763e-07 2.6032658e-07 -2.899711e-25)
(3.6450278e-07 2.5064774e-07 3.3611547e-26)
(3.4753306e-07 2.3761002e-07 -6.615486e-28)
(3.2614061e-07 2.2093973e-07 1.3986172e-26)
(3.0146961e-07 2.0120736e-07 1.2950743e-26)
(2.7369071e-07 1.788725e-07 9.4140772e-27)
(2.4351807e-07 1.5562779e-07 -1.0773906e-26)
(2.1059812e-07 1.3089754e-07 4.2674539e-27)
(1.7558889e-07 1.0671543e-07 1.2563361e-27)
(3.7411042e-07 2.6143797e-07 -2.5596614e-24)
(3.7262155e-07 2.610072e-07 1.663541e-25)
(3.6199714e-07 2.5214369e-07 2.9853866e-27)
(3.4757493e-07 2.3990377e-07 -1.110732e-26)
(3.2931608e-07 2.2398183e-07 -3.9826529e-27)
(3.0756642e-07 2.0507376e-07 2.7959985e-26)
(2.8287191e-07 1.8432061e-07 -1.9811494e-26)
(2.5543633e-07 1.620305e-07 7.2683926e-27)
(2.2558399e-07 1.3932903e-07 -1.4441783e-26)
(3.698405e-07 2.6195056e-07 1.3878046e-24)
(3.6852147e-07 2.6156072e-07 -1.7297805e-25)
(3.5978711e-07 2.5261605e-07 1.6401191e-26)
(3.4784431e-07 2.406603e-07 -6.6351702e-27)
(3.3209152e-07 2.2531113e-07 -6.0237491e-27)
(3.1304097e-07 2.0749875e-07 1.3403992e-26)
(2.911341e-07 1.8786705e-07 -1.4861028e-26)
(2.668125e-07 1.6721255e-07 -1.7600469e-26)
(3.6506813e-07 2.618052e-07 -2.5621271e-24)
(3.6486069e-07 2.6034023e-07 -6.1596859e-26)
(3.5838666e-07 2.514355e-07 1.1043487e-26)
(3.485184e-07 2.3978867e-07 -5.9965186e-27)
(3.3505754e-07 2.2515643e-07 7.4287347e-27)
(3.1853969e-07 2.0823349e-07 3.7514935e-27)
(3.6198749e-07 2.5923524e-07 -2.4940338e-24)
(3.628982e-07 2.5739399e-07 -1.3042406e-26)
(3.5800825e-07 2.4869886e-07 -2.0146423e-26)
(3.4992915e-07 2.3745821e-07 -2.6743788e-27)
(3.3858476e-07 2.2341644e-07 6.455756e-27)
(3.6034821e-07 2.5540492e-07 -2.0940691e-24)
(3.6207231e-07 2.5321435e-07 3.6257621e-25)
(3.5858075e-07 2.44656e-07 1.2141737e-26)
(3.5216242e-07 2.3366963e-07 -7.5253182e-27)
(3.5977368e-07 2.5045927e-07 -3.0178219e-24)
(3.6224567e-07 2.4784139e-07 -1.1992065e-25)
(3.6008218e-07 2.3925738e-07 -1.3930012e-26)
(3.5524117e-07 2.2834519e-07 5.8004791e-27)
(3.4779563e-07 2.1487617e-07 2.4095672e-27)
(3.3821447e-07 1.9939844e-07 -8.7808627e-27)
(3.2693272e-07 1.8243783e-07 8.1972125e-27)
(3.6019287e-07 2.4432671e-07 -3.0402345e-24)
(3.6339815e-07 2.4118498e-07 1.4688514e-25)
(3.6250816e-07 2.3241165e-07 7.0088343e-28)
(3.5915683e-07 2.213891e-07 2.080679e-26)
(3.5348581e-07 2.0792273e-07 -6.5290651e-27)
(3.4592599e-07 1.9255167e-07 -4.4580107e-27)
(3.368788e-07 1.7585805e-07 1.5420634e-26)
(3.2679445e-07 1.5846599e-07 -2.5125631e-29)
(3.6159103e-07 2.3690759e-07 1.1251409e-24)
(3.6552675e-07 2.3314183e-07 -1.1536996e-25)
(3.6587055e-07 2.2400782e-07 -1.6015417e-26)
(3.6396732e-07 2.1270752e-07 5.7201024e-27)
(3.6004013e-07 1.9908013e-07 -2.0791147e-26)
(3.5451445e-07 1.8368652e-07 -2.0101938e-26)
(3.4784945e-07 1.6713627e-07 -1.3278637e-26)
(3.405135e-07 1.4995484e-07 9.3395695e-27)
(3.6397721e-07 2.2807974e-07 -2.6887845e-24)
(3.6866618e-07 2.2356317e-07 -4.0177869e-26)
(3.7026264e-07 2.1387721e-07 5.8055539e-27)
(3.6985371e-07 2.021025e-07 3.8244497e-26)
(3.6776645e-07 1.881192e-07 -8.0089089e-27)
(3.6446107e-07 1.7249933e-07 1.2941593e-26)
(3.6039607e-07 1.5580918e-07 -9.7712008e-28)
(3.5599214e-07 1.3853367e-07 3.3865349e-27)
(3.516539e-07 1.2111401e-07 4.9571025e-27)
(3.6741801e-07 2.1764792e-07 1.5318238e-24)
(3.7293868e-07 2.1220198e-07 -5.284912e-26)
(3.7589305e-07 2.0172362e-07 1.8590945e-26)
(3.7713206e-07 1.8922885e-07 -2.3032923e-26)
(3.7711178e-07 1.7463759e-07 1.3722274e-26)
(3.7627952e-07 1.5850994e-07 -1.5174334e-26)
(3.7503306e-07 1.4136769e-07 -9.7310641e-27)
(3.7377907e-07 1.2369058e-07 5.3196351e-28)
(3.7208264e-07 2.0529686e-07 9.4248143e-25)
(3.7857832e-07 1.9867503e-07 2.2789461e-26)
(3.8308325e-07 1.8711002e-07 6.1530729e-27)
(3.86234e-07 1.7361422e-07 -2.5180507e-27)
(3.8857298e-07 1.5814084e-07 -9.8639202e-27)
(3.9044836e-07 1.4118423e-07 -2.5234071e-26)
(3.9222335e-07 1.2328099e-07 2.2298612e-26)
(3.9431627e-07 1.0491254e-07 -1.0126079e-26)
(3.7825035e-07 1.9056724e-07 -2.1941063e-24)
(3.8591311e-07 1.8246315e-07 -4.0217097e-26)
(3.9225374e-07 1.6952143e-07 4.4321769e-26)
(3.9765035e-07 1.5476307e-07 2.3630202e-26)
(4.0260131e-07 1.380667e-07 -4.6761319e-26)
(4.0736807e-07 1.1998077e-07 -2.1803638e-27)
(4.1236734e-07 1.0106273e-07 -7.835241e-27)
(3.8627919e-07 1.7287493e-07 2.1942539e-24)
(3.953347e-07 1.6301547e-07 1.8260022e-26)
(4.0386839e-07 1.484792e-07 -8.3329629e-27)
(4.1184502e-07 1.3207255e-07 7.5472066e-26)
(4.1957686e-07 1.1385985e-07 -5.953904e-26)
(4.2744821e-07 9.4393378e-08 5.3582466e-26)
(3.9648014e-07 1.5138813e-07 2.3399852e-26)
(4.0718036e-07 1.3980003e-07 -1.84838e-25)
(4.1852791e-07 1.2309469e-07 1.689701e-26)
(4.2927515e-07 1.0491479e-07 -3.763573e-26)
(4.3999235e-07 8.4908824e-08 -1.8303306e-26)
(4.0907889e-07 1.2588639e-07 -2.6779344e-24)
(4.2262047e-07 1.11105e-07 1.7689165e-25)
(4.3722796e-07 9.3495533e-08 -1.5242361e-26)
(4.2944476e-07 9.7952333e-08 -8.2999715e-25)
(4.3500553e-07 8.2365218e-08 1.9577006e-24)
(1.2088812e-06 1.5073544e-06 -1.3302785e-24)
(1.2665236e-06 1.4753047e-06 2.3666058e-25)
(1.2945977e-06 1.4087846e-06 -4.8409512e-25)
(1.305628e-06 1.4398045e-06 -9.1713619e-26)
(1.3381421e-06 1.3833359e-06 3.2144302e-25)
(1.3580831e-06 1.3261814e-06 -8.7364242e-25)
(1.3690914e-06 1.2726591e-06 -3.1771226e-24)
(1.2966131e-06 1.4461035e-06 -5.8246096e-26)
(1.3358139e-06 1.4044376e-06 1.6005518e-25)
(1.3670102e-06 1.3577503e-06 -1.3177492e-25)
(1.3896077e-06 1.3104559e-06 1.0332245e-25)
(1.4035368e-06 1.2611792e-06 -1.7134611e-26)
(1.4059176e-06 1.2193583e-06 -7.8201087e-25)
(1.2772301e-06 1.4346949e-06 -6.4109808e-26)
(1.3213975e-06 1.4039776e-06 -3.773583e-26)
(1.36012e-06 1.3692382e-06 -2.1823393e-26)
(1.3912394e-06 1.3310657e-06 3.0989425e-26)
(1.4141797e-06 1.2925925e-06 -7.8670222e-26)
(1.4292225e-06 1.2547095e-06 8.9491496e-26)
(1.4309316e-06 1.219141e-06 -1.7271302e-25)
(1.4269402e-06 1.1909949e-06 -4.1899016e-25)
(1.2043116e-06 1.431995e-06 -2.1102989e-24)
(1.2509575e-06 1.4107318e-06 -6.6684487e-25)
(1.2909513e-06 1.3867278e-06 7.9863447e-25)
(1.3396862e-06 1.3635591e-06 1.4065549e-25)
(1.3803899e-06 1.3340027e-06 -1.4717504e-26)
(1.4114991e-06 1.3040399e-06 -2.4649843e-26)
(1.4345284e-06 1.2743275e-06 2.8007966e-26)
(1.4491551e-06 1.2449589e-06 4.790028e-26)
(1.4548789e-06 1.2176072e-06 1.5444106e-26)
(1.45418e-06 1.1922044e-06 3.1978756e-26)
(1.4491877e-06 1.166343e-06 -1.0344646e-24)
(1.2978197e-06 1.3424817e-06 -9.7884241e-25)
(1.3537444e-06 1.31807e-06 2.2479988e-25)
(1.3985633e-06 1.2987734e-06 -1.7250759e-26)
(1.4285262e-06 1.2771312e-06 5.3228912e-26)
(1.4512445e-06 1.2554102e-06 1.5164302e-26)
(1.4666615e-06 1.2339203e-06 -1.1183413e-25)
(1.4748716e-06 1.2125985e-06 -1.9951342e-26)
(1.47806e-06 1.1919517e-06 -3.5299272e-28)
(1.4766003e-06 1.1694231e-06 1.8247469e-26)
(1.4750274e-06 1.1447483e-06 4.0635644e-25)
(1.4711626e-06 1.119644e-06 -3.6388091e-25)
(1.3631453e-06 1.272716e-06 -2.5578619e-24)
(1.4114035e-06 1.262154e-06 1.1922029e-25)
(1.4408745e-06 1.2515389e-06 1.8788829e-25)
(1.4621374e-06 1.2360248e-06 -7.852085e-26)
(1.4791969e-06 1.2214449e-06 -2.6533984e-26)
(1.4896925e-06 1.2057441e-06 1.2003765e-25)
(1.4953642e-06 1.1889816e-06 -7.8617859e-26)
(1.4970512e-06 1.1707725e-06 1.9213931e-29)
(1.4972814e-06 1.1520738e-06 5.5321114e-26)
(1.4915871e-06 1.1273046e-06 -6.994304e-26)
(1.4775522e-06 1.1049496e-06 -1.1098979e-25)
(1.418718e-06 1.2274174e-06 -2.8190924e-24)
(1.4418783e-06 1.2206247e-06 2.2546335e-26)
(1.4623906e-06 1.2141853e-06 2.0153545e-25)
(1.4844436e-06 1.2067439e-06 -1.0109665e-25)
(1.4978749e-06 1.1964967e-06 -1.1325171e-25)
(1.506154e-06 1.1839966e-06 9.7495436e-26)
(1.5104682e-06 1.1692462e-06 -5.7200038e-26)
(1.5120974e-06 1.1532398e-06 2.2797249e-26)
(1.5112213e-06 1.1354627e-06 -4.6680666e-28)
(1.5035237e-06 1.1132802e-06 2.5287036e-25)
(1.4916372e-06 1.0866268e-06 -1.7364454e-24)
(1.4558459e-06 1.1889449e-06 2.9473299e-24)
(1.4818319e-06 1.1890296e-06 -9.3501257e-26)
(1.4993971e-06 1.1844948e-06 1.0396244e-25)
(1.5104766e-06 1.1764028e-06 -1.1532298e-25)
(1.5175704e-06 1.1652684e-06 3.6548421e-26)
(1.5216129e-06 1.1517521e-06 1.050488e-26)
(1.5230349e-06 1.1357143e-06 4.4695382e-26)
(1.5220061e-06 1.1171169e-06 4.2423618e-26)
(1.5150067e-06 1.0939138e-06 2.6864921e-25)
(1.5098874e-06 1.0699723e-06 9.0043033e-25)
(1.5054554e-06 1.0427394e-06 5.2055422e-25)
(1.4723577e-06 1.1676433e-06 -8.0865394e-25)
(1.4939533e-06 1.1701484e-06 -3.2079598e-25)
(1.5087654e-06 1.1662505e-06 3.375604e-26)
(1.5187403e-06 1.158464e-06 -2.5224498e-26)
(1.5258396e-06 1.1477218e-06 -4.4769108e-26)
(1.5303859e-06 1.1341231e-06 -6.186304e-26)
(1.5326867e-06 1.1176253e-06 -8.0441581e-27)
(1.5319613e-06 1.0980115e-06 -2.0942741e-26)
(1.5311879e-06 1.0771159e-06 -1.3178802e-25)
(1.5273256e-06 1.0472368e-06 -2.4206809e-25)
(1.5176994e-06 1.0172765e-06 2.0559087e-24)
(1.4809838e-06 1.1511252e-06 1.9386789e-24)
(1.4995921e-06 1.1534634e-06 2.6194413e-26)
(1.5140098e-06 1.1486002e-06 -8.7789367e-29)
(1.5244604e-06 1.1404972e-06 7.3939643e-27)
(1.532416e-06 1.1293682e-06 4.1870236e-26)
(1.5381506e-06 1.1150056e-06 4.9920268e-26)
(1.5416134e-06 1.0970788e-06 -3.6775576e-26)
(1.5440545e-06 1.0763536e-06 6.0237892e-26)
(1.5456761e-06 1.050724e-06 1.8543565e-25)
(1.542913e-06 1.0206855e-06 -5.2646964e-25)
(1.4838884e-06 1.1342381e-06 -1.6923589e-24)
(1.5019398e-06 1.1350147e-06 -5.9295893e-26)
(1.5176479e-06 1.1296927e-06 3.9011477e-26)
(1.5289774e-06 1.1211052e-06 -4.6766968e-26)
(1.5380042e-06 1.1090015e-06 -2.2958014e-26)
(1.5450401e-06 1.0930154e-06 7.0869885e-26)
(1.5506491e-06 1.0732789e-06 -1.1352605e-25)
(1.5550711e-06 1.0490953e-06 1.5957542e-26)
(1.5575908e-06 1.0211405e-06 -2.0990614e-26)
(1.4859418e-06 1.1149335e-06 3.1694676e-24)
(1.5044641e-06 1.1150917e-06 5.5503048e-27)
(1.5205845e-06 1.1094209e-06 2.7338851e-26)
(1.5323825e-06 1.0996822e-06 2.6005712e-26)
(1.5424751e-06 1.0857379e-06 -5.4178583e-26)
(1.5511941e-06 1.0674837e-06 -7.706197e-26)
(1.5585679e-06 1.0447649e-06 9.7521722e-27)
(1.488227e-06 1.0950028e-06 -1.6470223e-24)
(1.5058662e-06 1.0950666e-06 -1.346917e-25)
(1.5215438e-06 1.0875213e-06 -5.8247738e-27)
(1.5341812e-06 1.0755548e-06 5.6047905e-26)
(1.5458351e-06 1.0589042e-06 -1.506566e-26)
(1.5561845e-06 1.037521e-06 2.9127881e-27)
(1.4863747e-06 1.0745046e-06 4.1326801e-25)
(1.5027369e-06 1.0729989e-06 2.958289e-25)
(1.5200916e-06 1.0626149e-06 -2.92677e-26)
(1.5348947e-06 1.0476124e-06 -8.7880235e-26)
(1.5482982e-06 1.0273968e-06 8.3205092e-26)
(1.4793017e-06 1.0501098e-06 7.2617359e-25)
(1.4975817e-06 1.0462495e-06 -7.2253738e-25)
(1.5190205e-06 1.0336007e-06 8.9344544e-26)
(1.5355511e-06 1.0144577e-06 -5.6925075e-26)
(1.4773747e-06 1.0290146e-06 3.3901928e-25)
(1.5011873e-06 1.016664e-06 -2.7146784e-27)
(1.5189855e-06 9.9885266e-07 -9.8609975e-27)
(1.4495229e-06 1.0039204e-06 -2.0887214e-24)
(1.4705298e-06 9.9487056e-07 1.0373635e-25)
(1.44789e-06 9.6952223e-07 4.465511e-25)
(1.4174018e-06 9.3998161e-07 1.0776459e-24)
(1.4214982e-06 -1.8189419e-07 2.1912946e-24)
(1.4854817e-06 -1.7152059e-07 -2.3631994e-24)
(1.4712305e-06 -1.7482451e-07 3.1984552e-25)
(1.5810472e-06 -1.2489561e-07 1.5083949e-24)
(1.5608496e-06 -1.3970972e-07 6.9062523e-26)
(1.5421617e-06 -1.5726342e-07 3.2685148e-25)
(1.5252821e-06 -1.5664669e-07 -1.8634966e-26)
(1.6425399e-06 -9.8922342e-08 1.2970353e-25)
(1.6269391e-06 -1.1256789e-07 -2.2789794e-25)
(1.6107057e-06 -1.2285764e-07 -5.3561218e-26)
(1.5895197e-06 -1.3236589e-07 -7.0764427e-26)
(1.5697901e-06 -1.3597223e-07 8.9942441e-27)
(1.729453e-06 -2.8848151e-08 -2.4541256e-24)
(1.719774e-06 -4.2166904e-08 4.5350683e-25)
(1.7015041e-06 -6.3676412e-08 -7.7110048e-26)
(1.6874364e-06 -8.4705652e-08 1.2433473e-25)
(1.6721563e-06 -9.2690072e-08 -1.2764685e-25)
(1.650841e-06 -1.0292143e-07 4.2859062e-26)
(1.6295477e-06 -1.101159e-07 -2.7080239e-27)
(1.8125533e-06 3.724825e-08 2.7947894e-24)
(1.8093873e-06 3.3131597e-08 4.0146919e-25)
(1.800539e-06 2.6007906e-08 8.1852979e-26)
(1.7911525e-06 1.4896969e-08 1.5053401e-25)
(1.7782991e-06 -1.0326621e-09 1.9651107e-25)
(1.7683749e-06 -1.8968213e-08 2.9632194e-25)
(1.7574931e-06 -3.1902586e-08 2.6818407e-26)
(1.7411709e-06 -4.6747214e-08 -9.2758171e-26)
(1.7229125e-06 -6.1755849e-08 2.0369819e-26)
(1.7044836e-06 -7.1995149e-08 4.8162127e-26)
(1.6839194e-06 -8.0624357e-08 1.814462e-26)
(1.6623e-06 -8.7402166e-08 3.6770099e-27)
(1.9060451e-06 1.6183509e-07 1.0185108e-25)
(1.9023791e-06 1.5257211e-07 6.4754784e-26)
(1.8972722e-06 1.4355736e-07 1.7094903e-26)
(1.8925282e-06 1.3459661e-07 1.7254674e-26)
(1.8879733e-06 1.2552954e-07 4.3675778e-26)
(1.8833914e-06 1.1607335e-07 1.4306092e-25)
(1.8773974e-06 1.0602563e-07 1.986816e-25)
(1.8704716e-06 9.5964529e-08 1.6960414e-25)
(1.8639195e-06 8.5380597e-08 -1.1435577e-25)
(1.8577396e-06 7.3539936e-08 -2.9704324e-26)
(1.8518764e-06 5.9757249e-08 -2.3183692e-27)
(1.8479372e-06 4.4351692e-08 -6.7129959e-25)
(1.8427845e-06 3.8424955e-08 -4.9441508e-26)
(1.8336779e-06 3.153359e-08 -1.9458659e-26)
(1.8236252e-06 2.1894039e-08 5.638537e-26)
(1.8123896e-06 9.4490782e-09 -1.680072e-26)
(1.8007206e-06 -3.094854e-09 3.0851556e-26)
(1.7858153e-06 -1.6738167e-08 -5.3217769e-27)
(1.7692709e-06 -2.915627e-08 -3.6972949e-26)
(1.7510961e-06 -4.0788862e-08 2.2268941e-27)
(1.7315946e-06 -5.0416167e-08 -3.269962e-26)
(1.710772e-06 -5.8388797e-08 -6.4080797e-28)
(1.6889027e-06 -6.4692325e-08 1.4410194e-26)
(1.93281e-06 1.6523913e-07 -2.8158296e-26)
(1.9294858e-06 1.5621021e-07 -1.6651831e-27)
(1.92533e-06 1.4725164e-07 -7.3235444e-29)
(1.921079e-06 1.3827203e-07 -1.4845514e-26)
(1.9167466e-06 1.29185e-07 3.1374871e-27)
(1.9122062e-06 1.1980671e-07 -2.3016047e-26)
(1.9068783e-06 1.1000324e-07 -4.0689558e-26)
(1.9009067e-06 1.0012643e-07 5.6774032e-26)
(1.8947595e-06 8.9888702e-08 4.8260358e-26)
(1.8883682e-06 7.8986995e-08 -1.3415115e-26)
(1.882031e-06 6.7543427e-08 -1.0573029e-25)
(1.8750815e-06 5.6977548e-08 -2.782115e-26)
(1.8656657e-06 4.7947864e-08 -1.5577981e-27)
(1.8559488e-06 4.0160298e-08 3.0955362e-26)
(1.8455522e-06 3.1430507e-08 -6.926829e-26)
(1.8342434e-06 2.1356633e-08 5.9770171e-27)
(1.8218454e-06 1.0915837e-08 -5.4925828e-26)
(1.8073566e-06 -2.1732333e-10 3.8875463e-27)
(1.7908459e-06 -1.0828109e-08 1.0002904e-26)
(1.7726327e-06 -2.0726305e-08 -1.2825756e-26)
(1.7529185e-06 -2.9242996e-08 2.3975397e-26)
(1.7319657e-06 -3.6388745e-08 -1.8212209e-26)
(1.7100187e-06 -4.2104089e-08 -1.0633857e-26)
(1.9461526e-06 1.6812599e-07 1.8488519e-27)
(1.9432624e-06 1.5947433e-07 -8.3463709e-28)
(1.9398282e-06 1.5075008e-07 -3.0923726e-27)
(1.9361113e-06 1.4193053e-07 1.5751342e-26)
(1.9321662e-06 1.3300105e-07 -1.2756359e-26)
(1.9279368e-06 1.2388222e-07 -1.3395227e-26)
(1.9231844e-06 1.1450467e-07 -5.8732409e-26)
(1.9179105e-06 1.0506688e-07 -1.9676517e-26)
(1.912217e-06 9.5463178e-08 -2.1872633e-26)
(1.9059932e-06 8.5637768e-08 -2.8614204e-27)
(1.8991872e-06 7.5862754e-08 4.1076859e-26)
(1.8914455e-06 6.6610476e-08 -6.0983827e-28)
(1.8824012e-06 5.8231841e-08 2.6940631e-26)
(1.8725841e-06 5.0412766e-08 2.9991092e-27)
(1.8619924e-06 4.2413793e-08 2.2368917e-26)
(1.8504227e-06 3.3875949e-08 -5.6840749e-28)
(1.8375873e-06 2.5037817e-08 2.0820731e-27)
(1.8230057e-06 1.5870098e-08 5.3944109e-27)
(1.8065581e-06 7.0314584e-09 -1.0361464e-26)
(1.7884293e-06 -1.2078579e-09 -1.5484534e-27)
(1.768793e-06 -8.4736308e-09 1.3385189e-26)
(1.7479113e-06 -1.4665636e-08 -5.3794798e-27)
(1.7260452e-06 -1.969681e-08 -3.5648761e-27)
(1.9523756e-06 1.7061581e-07 2.9649986e-27)
(1.950081e-06 1.6236454e-07 -2.7996182e-27)
(1.9473328e-06 1.5398557e-07 -1.0247321e-26)
(1.9441788e-06 1.4545929e-07 -1.2664917e-27)
(1.9407141e-06 1.3681764e-07 1.0446368e-27)
(1.9369151e-06 1.2806896e-07 1.9395095e-26)
(1.93266e-06 1.1919829e-07 1.0486152e-26)
(1.9279027e-06 1.103101e-07 -1.5922467e-26)
(1.9225862e-06 1.0143312e-07 3.9362042e-26)
(1.9165693e-06 9.2567901e-08 4.0149137e-27)
(1.9097421e-06 8.3892284e-08 2.9479742e-27)
(1.9019523e-06 7.5615784e-08 -1.2190756e-26)
(1.8931329e-06 6.7938513e-08 -7.559592e-27)
(1.8834135e-06 6.0728658e-08 -2.9714904e-27)
(1.8727782e-06 5.3641967e-08 2.7675732e-27)
(1.8610587e-06 4.6420358e-08 -1.9732395e-27)
(1.848016e-06 3.9094434e-08 -7.8348494e-28)
(1.8333766e-06 3.1682259e-08 1.5438662e-27)
(1.8170315e-06 2.4531722e-08 1.7443316e-28)
(1.7990685e-06 1.7856986e-08 3.503123e-27)
(1.7796335e-06 1.1888134e-08 -2.7461481e-27)
(1.758952e-06 6.7398817e-09 1.4444036e-27)
(1.737273e-06 2.4915439e-09 6.8452469e-28)
(1.9513393e-06 1.7245305e-07 1.1124911e-26)
(1.9498923e-06 1.6453704e-07 4.1196604e-27)
(1.9479604e-06 1.5660418e-07 8.3315319e-27)
(1.9454084e-06 1.484663e-07 7.3685589e-27)
(1.9424594e-06 1.4019757e-07 4.1529758e-28)
(1.9391332e-06 1.3188885e-07 -6.8442725e-27)
(1.935358e-06 1.2353885e-07 -1.3191171e-26)
(1.9310932e-06 1.1522647e-07 1.2600344e-26)
(1.9261822e-06 1.0709852e-07 -8.589868e-27)
(1.9204702e-06 9.911293e-08 -8.8466462e-28)
(1.9139118e-06 9.1385005e-08 2.3298379e-27)
(1.9064394e-06 8.4052416e-08 -3.7839811e-27)
(1.898015e-06 7.7243924e-08 4.1116665e-27)
(1.888587e-06 7.0945092e-08 6.0903401e-28)
(1.8780766e-06 6.4914498e-08 -3.7913033e-27)
(1.8663829e-06 5.8969014e-08 2.5897404e-27)
(1.8533361e-06 5.3088189e-08 -1.6831159e-27)
(1.8387677e-06 4.7274364e-08 3.5131051e-28)
(1.822601e-06 4.1712403e-08 -1.1590631e-27)
(1.8048778e-06 3.6536827e-08 2.8066928e-27)
(1.7857178e-06 3.1884926e-08 -6.1242791e-28)
(1.7653121e-06 2.7835748e-08 2.9666919e-28)
(1.7438894e-06 2.4440183e-08 2.8758442e-28)
(1.9427167e-06 1.7357958e-07 4.7470233e-27)
(1.9425829e-06 1.6585748e-07 -4.9066975e-26)
(1.9417956e-06 1.5858606e-07 -3.8669999e-27)
(1.9398936e-06 1.5091158e-07 -7.225067e-27)
(1.9374385e-06 1.4305983e-07 5.9498135e-27)
(1.934579e-06 1.3525904e-07 -1.5744429e-26)
(1.9313352e-06 1.2745813e-07 3.4840569e-27)
(1.9277226e-06 1.197127e-07 -2.181315e-26)
(1.9233639e-06 1.1236507e-07 -2.8760492e-27)
(1.9180675e-06 1.0522879e-07 -2.6504699e-28)
(1.9119387e-06 9.839895e-08 -1.3772345e-26)
(1.9049928e-06 9.1987388e-08 2.9425581e-27)
(1.8971716e-06 8.6127256e-08 -1.280494e-27)
(1.8882321e-06 8.0917962e-08 8.2155995e-27)
(1.8780188e-06 7.6058928e-08 -4.6186044e-28)
(1.8665357e-06 7.1397478e-08 -2.1896558e-27)
(1.8536722e-06 6.6929926e-08 -9.8680933e-28)
(1.8393169e-06 6.2618326e-08 -5.8354084e-28)
(1.823426e-06 5.8580857e-08 1.8901554e-28)
(1.8060146e-06 5.486621e-08 5.1073896e-28)
(1.7871883e-06 5.1535307e-08 2.0456735e-28)
(1.7671147e-06 4.8612634e-08 4.8919941e-31)
(1.7460066e-06 4.6113755e-08 -8.4086629e-29)
(1.9261614e-06 1.7410328e-07 -1.9439779e-26)
(1.9284716e-06 1.664462e-07 2.151245e-25)
(1.929289e-06 1.6022453e-07 2.8992058e-26)
(1.9278757e-06 1.5282802e-07 -8.5470323e-27)
(1.9256997e-06 1.452881e-07 -6.5680189e-27)
(1.9231554e-06 1.380343e-07 7.0215658e-26)
(1.9205144e-06 1.3083891e-07 3.1349665e-26)
(1.917961e-06 1.2356516e-07 2.0993907e-26)
(1.9143673e-06 1.1711743e-07 -4.3814457e-27)
(1.9095071e-06 1.1080063e-07 -5.2187566e-27)
(1.9038234e-06 1.048436e-07 5.5674275e-27)
(1.8975348e-06 9.9347089e-08 1.3536932e-27)
(1.8905927e-06 9.4478583e-08 -4.7050931e-27)
(1.8823673e-06 9.0550224e-08 8.9660551e-27)
(1.8726022e-06 8.6980194e-08 -1.0693353e-26)
(1.8615188e-06 8.3617817e-08 9.7672278e-27)
(1.8490264e-06 8.0550467e-08 -1.353941e-26)
(1.8350432e-06 7.7669929e-08 1.4949539e-28)
(1.8195483e-06 7.511251e-08 1.8501322e-27)
(1.802532e-06 7.2830211e-08 1.3358707e-27)
(1.7841025e-06 7.0818244e-08 -2.1762842e-28)
(1.7644197e-06 6.9034036e-08 -1.4987348e-28)
(1.8945715e-06 1.7269513e-07 -3.0134566e-25)
(1.9030067e-06 1.6712983e-07 -7.0306848e-25)
(1.9109728e-06 1.6081248e-07 3.3286877e-27)
(1.9096143e-06 1.5362585e-07 -1.1671319e-25)
(1.9073041e-06 1.463807e-07 -1.0884925e-25)
(1.9046629e-06 1.3979798e-07 2.4394511e-26)
(1.9026251e-06 1.3361949e-07 -4.5647861e-26)
(1.9021775e-06 1.2681487e-07 9.1918206e-27)
(1.8994269e-06 1.2162927e-07 2.1251374e-26)
(1.8947624e-06 1.1586207e-07 3.2386665e-27)
(1.8892908e-06 1.1065853e-07 1.6732784e-27)
(1.883715e-06 1.0606947e-07 -7.043814e-27)
(1.8781286e-06 1.0214528e-07 -1.7126608e-27)
(1.8708687e-06 9.9785866e-08 -2.3087227e-26)
(1.8616477e-06 9.761416e-08 3.4703186e-26)
(1.8511843e-06 9.5536804e-08 5.3220799e-27)
(1.8392889e-06 9.3874802e-08 1.9924133e-27)
(1.8258758e-06 9.2346762e-08 8.2583099e-27)
(1.8109411e-06 9.124928e-08 -8.3933702e-27)
(1.7944224e-06 9.038264e-08 -6.227337e-27)
(1.7764661e-06 8.9691859e-08 3.9800965e-28)
(1.7572416e-06 8.9048334e-08 5.8347502e-29)
(1.8739136e-06 1.6389413e-07 1.6072919e-24)
(1.8820387e-06 1.5885148e-07 -3.4738697e-25)
(1.8793511e-06 1.5182397e-07 4.1673058e-25)
(1.8762995e-06 1.4484348e-07 3.8601084e-25)
(1.8730701e-06 1.3893531e-07 -2.8598015e-25)
(1.8705777e-06 1.3445331e-07 -1.12968e-25)
(1.8757575e-06 1.3076542e-07 -5.9451412e-25)
(1.878823e-06 1.2479959e-07 -3.1683562e-27)
(1.8738012e-06 1.1942115e-07 -1.8497335e-26)
(1.868026e-06 1.1503934e-07 2.3455105e-26)
(1.8631248e-06 1.1178892e-07 4.6728346e-27)
(1.8599724e-06 1.0894981e-07 9.9735674e-27)
(1.8535855e-06 1.0884117e-07 2.3446305e-26)
(1.8447761e-06 1.0807893e-07 -2.6098499e-26)
(1.8352615e-06 1.0711076e-07 2.5281664e-26)
(1.8242374e-06 1.0685191e-07 -6.5923157e-26)
(1.8116821e-06 1.0650295e-07 -7.6143998e-27)
(1.7975286e-06 1.0688619e-07 -7.7092449e-27)
(1.7816288e-06 1.0744748e-07 -1.7605176e-28)
(1.7642298e-06 1.0810604e-07 -8.7369509e-28)
(1.7455455e-06 1.085965e-07 1.0488155e-27)
(1.8447374e-06 1.2918504e-07 9.1698628e-25)
(1.8477558e-06 1.2442263e-07 7.7409438e-26)
(1.8412111e-06 1.1947695e-07 7.7421704e-26)
(1.8344283e-06 1.1594743e-07 -7.8779632e-26)
(1.829139e-06 1.1468909e-07 -1.3846575e-25)
(1.8316527e-06 1.155292e-07 6.0045089e-25)
(1.8303003e-06 1.1618213e-07 -2.3446802e-27)
(1.821329e-06 1.1741022e-07 3.5799545e-26)
(1.8135474e-06 1.1798683e-07 3.7213009e-27)
(1.8035256e-06 1.1960743e-07 3.1043137e-26)
(1.7923206e-06 1.199924e-07 5.3482389e-26)
(1.7792142e-06 1.2194285e-07 -1.7172725e-26)
(1.7640656e-06 1.2393434e-07 1.0941731e-26)
(1.7472809e-06 1.2600505e-07 -5.9675663e-27)
(1.8001561e-06 1.1645605e-07 -2.7670568e-25)
(1.7976674e-06 1.1879019e-07 1.6604707e-25)
(1.7847173e-06 1.2333369e-07 2.117286e-25)
(1.780447e-06 1.2975798e-07 1.9383102e-25)
(1.7766146e-06 1.3087345e-07 5.6291367e-26)
(1.7679164e-06 1.3195786e-07 1.6868707e-26)
(1.7558051e-06 1.3643326e-07 1.9687125e-26)
(1.7415898e-06 1.3983519e-07 -5.7248126e-27)
(1.7253749e-06 1.4340371e-07 -1.0048073e-26)
(1.7435227e-06 1.3343982e-07 3.515729e-25)
(1.738275e-06 1.3666853e-07 7.1655549e-26)
(1.7335539e-06 1.4270332e-07 -1.5843469e-25)
(1.7272298e-06 1.4877239e-07 -4.9326169e-26)
(1.7142536e-06 1.5448451e-07 1.2714026e-27)
(1.6979023e-06 1.604416e-07 -2.4418953e-26)
(1.6985783e-06 1.4728333e-07 -7.5617469e-25)
(1.6893451e-06 1.5684149e-07 9.1131652e-25)
(1.6769842e-06 1.7066107e-07 -3.1621829e-25)
(1.6639879e-06 1.7617574e-07 2.1543362e-26)
(1.6342891e-06 1.7868182e-07 6.4925946e-25)
(1.618976e-06 1.8610599e-07 4.8329937e-25)
(2.6840153e-06 -1.6910947e-07 1.4026228e-24)
(2.683657e-06 -1.2733537e-07 9.1307037e-25)
(2.6697965e-06 -3.7413527e-07 4.1157306e-25)
(2.7021895e-06 -2.7944716e-07 3.3320428e-25)
(2.7215104e-06 -1.9399916e-07 3.7704672e-25)
(2.7328033e-06 -1.2701021e-07 3.4776521e-26)
(2.6209229e-06 -5.941746e-07 -1.7268459e-25)
(2.6855955e-06 -4.2857459e-07 -3.8877963e-25)
(2.740112e-06 -3.0370241e-07 -2.8011266e-26)
(2.7549442e-06 -2.0170504e-07 -5.2711873e-26)
(2.7572572e-06 -1.22751e-07 -8.679079e-27)
(2.6855984e-06 -6.3819554e-07 -2.0259291e-26)
(2.7275383e-06 -4.6883804e-07 1.8009929e-25)
(2.7608283e-06 -3.28838e-07 -4.0609869e-27)
(2.7732674e-06 -2.0964179e-07 2.2873868e-26)
(2.7705463e-06 -1.141702e-07 1.3551523e-26)
(2.7233305e-06 -6.7260642e-07 8.1458826e-27)