# Region type : patch outlet
# Faces         : 101
# Area          : 1.01530790e-15
# Scale factor  : 1.00000000e+00
# Time          	sum(phi)
0               
1027            	1.04161887e-23
